      -----------------------------------------------------------      
     |                   =====================                   |     
     |                           x T B                           |     
     |                   =====================                   |     
     |                         S. Grimme                         |     
     |          Mulliken Center for Theoretical Chemistry        |     
     |                    University of Bonn                     |     
      -----------------------------------------------------------      

   * xtb version 6.3.1 (2faf18d) compiled by 'ehlert@majestix' on 2020-06-10

   xtb is free software: you can redistribute it and/or modify it under
   the terms of the GNU Lesser General Public License as published by
   the Free Software Foundation, either version 3 of the License, or
   (at your option) any later version.
   
   xtb is distributed in the hope that it will be useful,
   but WITHOUT ANY WARRANTY; without even the implied warranty of
   MERCHANTABILITY or FITNESS FOR A PARTICULAR PURPOSE.  See the
   GNU Lesser General Public License for more details.
   
   Cite this work as:
   * S. Grimme, C. Bannwarth, P. Shushkov, J. Chem. Theory Comput., 2017,
     13, 1989-2009. DOI: 10.1021/acs.jctc.7b00118
   * C. Bannwarth, S. Ehlert and S. Grimme., J. Chem. Theory Comput., 2019,
     15, 1652-1671. DOI: 10.1021/acs.jctc.8b01176
   * P. Pracht, E. Caldeweyher, S. Ehlert, S. Grimme, ChemRxiv, 2019, preprint.
     DOI: 10.26434/chemrxiv.8326202.v1
   
   for GFN-FF:
   * S. Spicher and S. Grimme, Angew. Chem. Int. Ed., 2020,
     DOI: 10.1002/anie.202004239
   
   for DFT-D4:
   * E. Caldeweyher, C. Bannwarth and S. Grimme, J. Chem. Phys., 2017,
     147, 034112. DOI: 10.1063/1.4993215
   * E. Caldeweyher, S. Ehlert, A. Hansen, H. Neugebauer, S. Spicher,
     C. Bannwarth and S. Grimme, J. Chem. Phys., 2019, 150, 154122.
     DOI: 10.1063/1.5090222
   
   for sTDA-xTB:
   * S. Grimme and C. Bannwarth, J. Chem. Phys., 2016, 145, 054103.
     DOI: 10.1063/1.4959605
   
   in the mass-spec context:
   * V. Asgeirsson, C. Bauer and S. Grimme, Chem. Sci., 2017, 8, 4879.
     DOI: 10.1039/c7sc00601b
   * J. Koopman and S. Grimme, ACS Omega 2019, 4, 12, 15120-15133.
     DOI: 10.1021/acsomega.9b02011
   
   for metadynamics refer to:
   * S. Grimme, J. Chem. Theory Comput., 2019, 155, 2847-2862
     DOI: 10.1021/acs.jctc.9b00143
   
   with help from (in alphabetical order)
   C. Bannwarth, F. Bohle, G. Brandenburg, E. Caldeweyher, M. Checinski,
   S. Dohm, S. Ehlert, S. Ehrlich, F. März, H. Neugebauer, J. Pisarek,
   P. Pracht, P. Shushkov, and S. Spicher.
   
 * started run on 2020/12/27 at 11:29:14.195     

           -------------------------------------------------
          |                Calculation Setup                |
           -------------------------------------------------

          program call               : /home/atarzia/software/xtb-6.3.1/bin/xtb input_structure_ff.xyz --gfnff --opt normal --parallel 4 --chrg 4
          coordinate file            : input_structure_ff.xyz
          number of atoms            :                   558
          number of electrons        :                  1648
          charge                     :                     4
          spin                       :                   0.0
          first test random number   :      0.23375824087739

   ID    Z sym.   atoms
    1   46 Pd     1, 2
    2    7 N      3, 15, 38, 44, 102, 117, 122, 137, 142, 154, 177, 183, 241,
                  256, 261, 276, 281, 293, 316, 322, 380, 395, 400, 415, 420,
                  432, 455, 461, 519, 534, 539, 554
    3    6 C      4-10, 16-22, 27-32, 36, 39, 40, 46, 50-57, 63-67, 74,
                  76-81, 85, 88, 90-95, 99, 103-106, 108, 110, 113, 116,
                  123-126, 128, 130, 133, 136, 143-149, 155-161, 166-171,
                  175, 178, 179, 185, 189-196, 202-206, 213, 215-220, 224,
                  227, 229-234, 238, 242-245, 247, 249, 252, 255, 262-265,
                  267, 269, 272, 275, 282-288, 294-300, 305-310, 314, 317,
                  318, 324, 328-335, 341-345, 352, 354-359, 363, 366,
                  368-373, 377, 381-384, 386, 388, 391, 394, 401-404, 406,
                  408, 411, 414, 421-427, 433-439, 444-449, 453, 456, 457,
                  463, 467-474, 480-484, 491, 493-498, 502, 505, 507-512,
                  516, 520-523, 525, 527, 530, 533, 540-543, 545, 547, 550,
                  553
    4    1 H      11-14, 23-26, 33-35, 41, 42, 45, 47-49, 58-62, 68-73,
                  82-84, 87, 96-98, 101, 107, 109, 111, 112, 114, 115,
                  118-121, 127, 129, 131, 132, 134, 135, 138-141, 150-153,
                  162-165, 172-174, 180, 181, 184, 186-188, 197-201, 207-212,
                  221-223, 226, 235-237, 240, 246, 248, 250, 251, 253, 254,
                  257-260, 266, 268, 270, 271, 273, 274, 277-280, 289-292,
                  301-304, 311-313, 319, 320, 323, 325-327, 336-340, 346-351,
                  360-362, 365, 374-376, 379, 385, 387, 389, 390, 392, 393,
                  396-399, 405, 407, 409, 410, 412, 413, 416-419, 428-431,
                  440-443, 450-452, 458, 459, 462, 464-466, 475-479, 485-490,
                  499-501, 504, 513-515, 518, 524, 526, 528, 529, 531, 532,
                  535-538, 544, 546, 548, 549, 551, 552, 555-558
    5    8 O      37, 43, 75, 86, 89, 100, 176, 182, 214, 225, 228, 239, 315,
                  321, 353, 364, 367, 378, 454, 460, 492, 503, 506, 517

molecular fragmentation (1/2 indicates fragments):
111111111111111111111112111111111111111111111111111111111111111111111111
122222222222222222222222222222222222222222222222222222222222222222222111
111111111111111111111111111111111111111111111111111111111111111111112222
222222222222222222222222222222222222222222222222222222222222222211111111
121111111111111111111111111111111111111111111111111111111111111222222222
222222222222222222222222222222222222222222222222222222222222222222222222
222222222222222222222222222222222222222222222222222222222222222222222222
222222222222222222222222222222222222222222222222222222
# atoms in fragment 1/2:   213   345
 fragment masses (1/2) :     1892.75     2693.02
CMA distance (Bohr)    :  10.545
constraining FC (au)   :  0.0500
########################################################################
[WARNING] Please study the warnings concerning your input carefully
-1- prog_main_parseArguments: Process number higher than OMP_NUM_THREADS, I hope you know what you are doing.
########################################################################
 
          ==================== Thresholds ====================
          CN  :   150.00000
          rep :   500.00000
          disp:  2500.00000
          HB1 :   250.00000
          HB2 :   450.00000
 
          Pauling EN used:
          Z : 1  EN :  2.20
          Z : 6  EN :  2.55
          Z : 7  EN :  3.04
          Z : 8  EN :  3.44
          Z :46  EN :  2.20
          electric field strengths (au): 0.000
 
           ------------------------------------------------- 
          |           Force Field Initialization            |
           ------------------------------------------------- 
 
          distances ...
          ----------------------------------------
          generating topology and atomic info file ...
          pair mat ...
          computing topology distances matrix with Floyd-Warshall algo ...
          making topology EEQ charges ...
          #fragments for EEQ constrain: 5
          ----------------------------------------
          generating topology and atomic info file ...
          pair mat ...
          computing topology distances matrix with Floyd-Warshall algo ...
          making topology EEQ charges ...
          rings ...
          # BATM   6322
          # H in HB   192
          maxhb123   423290 30440 0
          doing iterative Hueckel for 32 subsystem(s) ...
 
  atom   neighbors  erfCN metchar sp-hybrid imet pi  qest     coordinates
    1  Pd      7    4.06   0.02         0    2    0   0.337   -5.231941   11.276356    2.418709
    2  Pd      5    3.73   0.02         0    2    0   0.341   -5.424553   -9.542817    2.329280
    3  N       3    2.79   0.00         2    0    1  -0.176   -1.676242   12.105541    2.403336
    4  C       3    2.91   0.00         2    0    1   0.013   -1.192644   13.842505    0.570667
    5  C       3    2.80   0.00         2    0    1  -0.020    1.112134   13.747684   -0.753744
    6  C       3    2.82   0.00         2    0    1  -0.021    2.827941   11.847728   -0.200175
    7  C       3    2.81   0.00         2    0    1   0.011    2.286053   10.057643    1.676416
    8  C       3    2.85   0.00         2    0    1   0.011    0.006578   10.262418    2.998827
    9  C       2    1.94   0.00         1    0    1   0.000    3.951203    7.950020    2.059357
   10  C       2    1.94   0.00         1    0    1   0.003    5.243685    6.086276    2.220991
   11  H       1    0.97   0.00         0    0    0   0.070   -0.507781    8.883588    4.412756
   12  H       1    0.97   0.00         0    0    0   0.071   -2.565084   15.304813    0.128498
   13  H       1    0.98   0.00         0    0    0   0.075    1.514358   15.154128   -2.145121
   14  H       1    0.97   0.00         0    0    0   0.074    4.582311   11.757930   -1.252578
   15  N       3    2.76   0.00         2    0    1  -0.154   -1.676242   -8.695839    2.403336
   16  C       3    3.02   0.00         2    0    1  -0.021   -0.799330  -11.082746    2.127172
   17  C       3    2.80   0.00         2    0    1  -0.021    1.744349  -11.510262    1.555122
   18  C       3    2.82   0.00         2    0    1  -0.023    3.395376   -9.438847    1.340787
   19  C       3    2.80   0.00         2    0    1   0.014    2.478054   -6.991926    1.681682
   20  C       3    2.82   0.00         2    0    1   0.010   -0.102682   -6.648853    2.187932
   21  C       2    1.94   0.00         1    0    1   0.001    4.122481   -4.856025    1.533169
   22  C       2    1.94   0.00         1    0    1   0.004    5.485835   -3.014788    1.461140
   23  H       1    0.97   0.00         0    0    0   0.073   -0.870899   -4.763213    2.432038
   24  H       1    0.97   0.00         0    0    0   0.071   -2.072396  -12.682338    2.437397
   25  H       1    0.97   0.00         0    0    0   0.074    2.498701  -13.416387    1.421805
   26  H       1    0.98   0.00         0    0    0   0.073    5.345583   -9.762251    0.879904
   27  C       3    2.80   0.00         2    0    1   0.018   10.823647    1.591746    2.448737
   28  C       3    2.81   0.00         2    0    1  -0.016    9.364475    3.861164    2.584276
   29  C       3    2.81   0.00         2    0    1   0.017    6.727116    3.787464    2.217068
   30  C       3    2.83   0.00         2    0    1  -0.025    5.591295    1.558514    1.495486
   31  C       3    2.81   0.00         2    0    1   0.017    6.949889   -0.706192    1.502642
   32  C       3    2.81   0.00         2    0    1  -0.016    9.538745   -0.704590    2.000683
   33  H       1    0.98   0.00         0    0    0   0.080   10.618438   -2.421705    1.959164
   34  H       1    0.97   0.01         0    0    0   0.080   10.308177    5.703796    2.986345
   35  H       1    0.97   0.00         0    0    0   0.077    3.551101    1.507406    1.134401
   36  C       3    2.79   0.00         2    0    1   0.168   13.685038    1.872883    2.148802
   37  O       1    0.98   0.00         2    0    1  -0.368   14.493149    4.067046    1.733155
   38  N       3    2.78   0.00        -3    0    1  -0.172   15.053147   -0.241796    1.093949
   39  C       4    3.49   0.00         3    0    0   0.005   17.406247   -1.144503    2.271492
   40  C       3    2.79   0.00         2    0    1   0.166   19.055180   -2.459966    0.360656
   41  H       1    0.97   0.01         0    0    0   0.082   18.489931    0.454545    3.098548
   42  H       1    0.97   0.01         0    0    0   0.082   16.848861   -2.549930    3.701918
   43  O       1    0.98   0.00         2    0    1  -0.368   18.669107   -2.137410   -1.968065
   44  N       3    2.78   0.00        -3    0    1  -0.188   20.959831   -4.253964    1.129043
   45  H       1    0.97   0.01         0    0    0   0.143   14.212058   -1.363125   -0.337452
   46  C       4    3.48   0.00         3    0    0   0.001   23.320908   -3.468167    2.378704
   47  H       1    0.97   0.00         0    0    0   0.140   20.627619   -6.189548    0.872978
   48  H       1    0.97   0.01         0    0    0   0.069   23.853075   -1.600868    1.621005
   49  H       1    0.97   0.01         0    0    0   0.069   22.997936   -3.316926    4.444452
   50  C       4    3.49   0.00         3    0    0  -0.015   25.567340   -5.314822    1.780288
   51  C       3    2.81   0.00         2    0    1  -0.001   28.166006   -4.090814    1.897685
   52  C       3    2.81   0.00         2    0    1  -0.001   25.627859   -7.674190    3.408056
   53  C       3    2.81   0.00         2    0    1  -0.023   25.433816   -7.516515    6.063448
   54  C       3    2.80   0.00         2    0    1  -0.019   25.874453   -9.648245    7.575915
   55  C       3    2.81   0.00         2    0    1  -0.018   26.529468  -11.928451    6.455085
   56  C       3    2.81   0.00         2    0    1  -0.019   26.763595  -12.117252    3.828033
   57  C       3    2.81   0.00         2    0    1  -0.023   26.336706  -10.000103    2.310190
   58  H       1    0.97   0.00         0    0    0   0.071   26.702270  -10.116370    0.302488
   59  H       1    0.97   0.00         0    0    0   0.071   25.046054   -5.753832    7.025336
   60  H       1    0.98   0.00         0    0    0   0.071   25.758114   -9.509016    9.596501
   61  H       1    0.97   0.00         0    0    0   0.072   26.989979  -13.541691    7.621737
   62  H       1    0.98   0.00         0    0    0   0.071   27.467526  -13.835836    3.011473
   63  C       3    2.81   0.00         2    0    1  -0.023   29.954898   -4.648348    0.022747
   64  C       3    2.81   0.00         2    0    1  -0.019   32.425033   -3.697462    0.175234
   65  C       3    2.81   0.00         2    0    1  -0.018   33.121971   -2.142564    2.164522
   66  C       3    2.81   0.00         2    0    1  -0.019   31.351519   -1.603928    4.066488
   67  C       3    2.81   0.00         2    0    1  -0.023   28.920319   -2.579185    3.958961
   68  H       1    0.97   0.00         0    0    0   0.071   27.632293   -2.205371    5.506703
   69  H       1    0.97   0.00         0    0    0   0.071   29.473572   -5.842097   -1.564604
   70  H       1    0.97   0.00         0    0    0   0.071   33.813061   -4.227476   -1.238812
   71  H       1    0.97   0.00         0    0    0   0.072   35.056741   -1.458154    2.290473
   72  H       1    0.98   0.00         0    0    0   0.071   31.935427   -0.508656    5.661169
   73  H       1    0.97   0.01         0    0    0   0.063   25.283626   -5.919083   -0.204962
   74  C       3    2.79   0.00         2    0    1   0.163   19.413877   -7.702260    9.537502
   75  O       1    0.98   0.00         2    0    1  -0.387   17.571819   -7.616036    8.044958
   76  C       3    2.81   0.00         2    0    1  -0.019   22.358194   -5.150163   12.290158
   77  C       3    2.80   0.00         2    0    1   0.011   20.716595   -5.287608   10.211198
   78  C       3    2.80   0.00         2    0    1  -0.017   23.580401   -2.877397   12.860643
   79  C       3    2.81   0.00         2    0    1  -0.019   23.194339   -0.727405   11.359335
   80  C       3    2.81   0.00         2    0    1  -0.013   20.308021   -3.102652    8.724596
   81  C       3    2.80   0.00         2    0    1   0.011   21.552653   -0.800514    9.274165
   82  H       1    0.98   0.00         0    0    0   0.063   22.733348   -6.719701   13.472024
   83  H       1    0.97   0.00         0    0    0   0.062   24.871078   -2.792083   14.437899
   84  H       1    0.98   0.00         0    0    0   0.067   19.125659   -3.217377    7.088719
   85  C       3    2.79   0.00         2    0    1   0.163   21.237226    1.511766    7.739989
   86  O       1    0.98   0.00         2    0    1  -0.387   19.580324    3.094199    8.347409
   87  H       1    0.98   0.00         0    0    0   0.063   24.195186    0.966699   11.838948
   88  C       3    2.79   0.00         2    0    1   0.163   24.475708   -4.707407   -5.116512
   89  O       1    0.98   0.00         2    0    1  -0.387   22.387364   -3.711167   -4.687734
   90  C       3    2.81   0.00         2    0    1  -0.019   26.644170   -8.877360   -6.171881
   91  C       3    2.80   0.00         2    0    1   0.011   24.633001   -7.556965   -5.063502
   92  C       3    2.81   0.00         2    0    1  -0.017   26.787304  -11.493750   -5.922282
   93  C       3    2.81   0.00         2    0    1  -0.019   25.047913  -12.831167   -4.456221
   94  C       3    2.81   0.00         2    0    1  -0.013   22.765287   -8.961079   -3.743655
   95  C       3    2.80   0.00         2    0    1   0.011   23.045423  -11.582351   -3.267939
   96  H       1    0.97   0.00         0    0    0   0.063   28.075623   -7.884160   -7.250998
   97  H       1    0.97   0.00         0    0    0   0.062   28.329993  -12.474833   -6.857048
   98  H       1    0.97   0.00         0    0    0   0.067   21.149148   -7.946984   -2.949326
   99  C       3    2.79   0.00         2    0    1   0.163   21.239870  -12.877970   -1.527008
  100  O       1    0.98   0.00         2    0    1  -0.387   19.583920  -11.577599   -0.414838
  101  H       1    0.97   0.00         0    0    0   0.063   25.338156  -14.844869   -4.284056
  102  N       3    2.78   0.00        -3    0    1  -0.195   21.379953  -15.542446   -0.968169
  103  C       3    2.80   0.00         2    0    1  -0.001   19.138285  -15.824505    3.104559
  104  C       3    2.81   0.00         2    0    1  -0.024   21.218021  -15.753394    4.750571
  105  C       3    2.81   0.00         2    0    1  -0.024   16.769022  -14.938730    3.983346
  106  C       3    2.80   0.00         2    0    1  -0.024   16.541920  -13.859730    6.383925
  107  H       1    0.97   0.00         0    0    0   0.059   15.100929  -15.084106    2.800236
  108  C       3    2.81   0.00         2    0    1  -0.001   18.682129  -13.650135    7.943244
  109  H       1    0.97   0.00         0    0    0   0.059   14.712231  -13.127909    7.007043
  110  C       3    2.81   0.00         2    0    1  -0.024   20.977921  -14.695871    7.174577
  111  H       1    0.98   0.00         0    0    0   0.059   23.004545  -16.522758    4.165326
  112  H       1    0.97   0.00         0    0    0   0.059   22.580762  -14.687154    8.449877
  113  C       4    3.48   0.00         3    0    0   0.009   19.397043  -16.881101    0.472524
  114  H       1    0.97   0.01         0    0    0   0.054   19.871430  -18.938170    0.588820
  115  H       1    0.97   0.01         0    0    0   0.054   17.556338  -16.744302   -0.561681
  116  C       4    3.49   0.00         3    0    0   0.009   18.478884  -12.346610   10.488586
  117  N       3    2.78   0.00        -3    0    1  -0.195   20.135289  -10.092340   10.616817
  118  H       1    0.97   0.01         0    0    0   0.054   19.017928  -13.702252   11.997910
  119  H       1    0.97   0.01         0    0    0   0.054   16.526063  -11.761749   10.909673
  120  H       1    0.97   0.00         0    0    0   0.129   21.826522  -10.258578   11.650349
  121  H       1    0.97   0.00         0    0    0   0.129   22.559465  -16.711041   -2.014952
  122  N       3    2.79   0.00        -3    0    1  -0.195   22.910525    2.009410    5.662169
  123  C       3    2.81   0.00         2    0    1  -0.001   23.714662    3.370640    1.326317
  124  C       3    2.81   0.00         2    0    1  -0.024   26.293159    2.797469    1.130230
  125  C       3    2.80   0.00         2    0    1  -0.024   22.148130    3.054090   -0.798063
  126  C       3    2.81   0.00         2    0    1  -0.024   23.114994    1.915585   -2.986801
  127  H       1    0.97   0.00         0    0    0   0.059   20.184165    3.628113   -0.726180
  128  C       3    2.80   0.00         2    0    1  -0.001   25.618620    0.994175   -3.053723
  129  H       1    0.97   0.00         0    0    0   0.059   21.870180    1.668286   -4.583198
  130  C       3    2.81   0.00         2    0    1  -0.024   27.219046    1.583025   -1.026596
  131  H       1    0.97   0.00         0    0    0   0.059   27.564047    3.143200    2.727882
  132  H       1    0.97   0.00         0    0    0   0.059   29.182518    1.021249   -1.120640
  133  C       4    3.49   0.00         3    0    0   0.009   22.626783    4.117813    3.873647
  134  H       1    0.97   0.01         0    0    0   0.054   23.539829    5.823466    4.635838
  135  H       1    0.97   0.01         0    0    0   0.054   20.597206    4.595214    3.645875
  136  C       4    3.48   0.00         3    0    0   0.009   26.638699   -0.339499   -5.367861
  137  N       3    2.78   0.00        -3    0    1  -0.195   26.733583   -3.129779   -5.092564
  138  H       1    0.97   0.01         0    0    0   0.054   28.552597    0.360121   -5.799905
  139  H       1    0.97   0.01         0    0    0   0.054   25.431017    0.136359   -7.030886
  140  H       1    0.97   0.00         0    0    0   0.129   28.486800   -3.998770   -5.312772
  141  H       1    0.97   0.00         0    0    0   0.129   24.329358    0.694520    5.330938
  142  N       3    2.80   0.00         2    0    1  -0.156   -5.822784   11.231288    6.054754
  143  C       3    3.19   0.00         2    0    1  -0.022   -3.990115   12.968252    6.538352
  144  C       3    2.80   0.00         2    0    1  -0.021   -2.665704   12.873431    8.843129
  145  C       3    2.82   0.00         2    0    1  -0.023   -3.219273   10.973474   10.558936
  146  C       3    2.81   0.00         2    0    1   0.013   -5.095863    9.183390   10.017048
  147  C       3    2.83   0.00         2    0    1   0.010   -6.418275    9.388164    7.737574
  148  C       2    1.94   0.00         1    0    1   0.001   -5.478805    7.075767   11.682199
  149  C       2    1.94   0.00         1    0    1   0.003   -5.640439    5.212023   12.974681
  150  H       1    0.97   0.00         0    0    0   0.072   -7.832204    8.009335    7.223215
  151  H       1    0.98   0.00         0    0    0   0.070   -3.547945   14.430560    5.165912
  152  H       1    0.98   0.00         0    0    0   0.073   -1.274327   14.279875    9.245352
  153  H       1    0.97   0.00         0    0    0   0.073   -2.166869   10.883676   12.313307
  154  N       3    2.77   0.00         2    0    1  -0.174   -5.822784   -9.570092    6.054754
  155  C       3    2.88   0.00         2    0    1   0.012   -5.546620  -11.957001    6.931666
  156  C       3    2.80   0.00         2    0    1  -0.019   -4.974569  -12.384516    9.475345
  157  C       3    2.82   0.00         2    0    1  -0.021   -4.760235  -10.313100   11.126372
  158  C       3    2.80   0.00         2    0    1   0.012   -5.101130   -7.866181   10.209050
  159  C       3    2.83   0.00         2    0    1   0.011   -5.607380   -7.523107    7.628312
  160  C       2    1.94   0.00         1    0    1   0.000   -4.952616   -5.730278   11.853476
  161  C       2    1.94   0.00         1    0    1   0.003   -4.880588   -3.889041   13.216830
  162  H       1    0.97   0.00         0    0    0   0.071   -5.851485   -5.637468    6.860096
  163  H       1    0.97   0.00         0    0    0   0.073   -5.856845  -13.556592    5.658599
  164  H       1    0.97   0.00         0    0    0   0.075   -4.841253  -14.290642   10.229695
  165  H       1    0.98   0.00         0    0    0   0.074   -4.299350  -10.636504   13.076579
  166  C       3    2.80   0.00         2    0    1   0.018   -5.868185    0.717491   18.554643
  167  C       3    2.81   0.00         2    0    1  -0.016   -6.003724    2.986908   17.095470
  168  C       3    2.81   0.00         2    0    1   0.017   -5.636516    2.913211   14.458110
  169  C       3    2.83   0.00         2    0    1  -0.025   -4.914933    0.684258   13.322288
  170  C       3    2.81   0.00         2    0    1   0.017   -4.922090   -1.580446   14.680884
  171  C       3    2.81   0.00         2    0    1  -0.016   -5.420131   -1.578843   17.269741
  172  H       1    0.98   0.00         0    0    0   0.080   -5.378612   -3.295958   18.349434
  173  H       1    0.97   0.01         0    0    0   0.080   -6.405793    4.829540   18.039173
  174  H       1    0.97   0.00         0    0    0   0.077   -4.553848    0.633153   11.282095
  175  C       3    2.79   0.00         2    0    1   0.168   -5.568249    0.998629   21.416032
  176  O       1    0.98   0.00         2    0    1  -0.368   -5.152602    3.192790   22.224143
  177  N       3    2.78   0.00        -3    0    1  -0.172   -4.513397   -1.116049   22.784142
  178  C       4    3.49   0.00         3    0    0   0.005   -5.690940   -2.018756   25.137242
  179  C       3    2.79   0.00         2    0    1   0.166   -3.780104   -3.334219   26.786176
  180  H       1    0.97   0.01         0    0    0   0.082   -6.517996   -0.419708   26.220926
  181  H       1    0.97   0.01         0    0    0   0.082   -7.121366   -3.424183   24.579854
  182  O       1    0.98   0.00         2    0    1  -0.368   -1.451383   -3.011664   26.400103
  183  N       3    2.78   0.00        -3    0    1  -0.188   -4.548491   -5.128217   28.690827
  184  H       1    0.97   0.01         0    0    0   0.143   -3.081996   -2.237379   21.943052
  185  C       4    3.48   0.00         3    0    0   0.001   -5.798152   -4.342422   31.051903
  186  H       1    0.97   0.00         0    0    0   0.140   -4.292426   -7.063801   28.358615
  187  H       1    0.97   0.01         0    0    0   0.069   -5.040453   -2.475121   31.584071
  188  H       1    0.97   0.01         0    0    0   0.069   -7.863900   -4.191180   30.728932
  189  C       4    3.49   0.00         3    0    0  -0.015   -5.199736   -6.189075   33.298334
  190  C       3    2.81   0.00         2    0    1  -0.001   -5.317133   -4.965068   35.897002
  191  C       3    2.81   0.00         2    0    1  -0.001   -6.827504   -8.548444   33.358854
  192  C       3    2.81   0.00         2    0    1  -0.023   -9.482896   -8.390769   33.164811
  193  C       3    2.80   0.00         2    0    1  -0.019  -10.995361  -10.522499   33.605448
  194  C       3    2.81   0.00         2    0    1  -0.018   -9.874532  -12.802704   34.260463
  195  C       3    2.81   0.00         2    0    1  -0.019   -7.247481  -12.991505   34.494591
  196  C       3    2.81   0.00         2    0    1  -0.023   -5.729638  -10.874356   34.067702
  197  H       1    0.97   0.00         0    0    0   0.071   -3.721936  -10.990623   34.433263
  198  H       1    0.97   0.00         0    0    0   0.071  -10.444784   -6.628085   32.777049
  199  H       1    0.98   0.00         0    0    0   0.071  -13.015949  -10.383269   33.489107
  200  H       1    0.97   0.00         0    0    0   0.072  -11.041185  -14.415944   34.720974
  201  H       1    0.98   0.00         0    0    0   0.071   -6.430921  -14.710090   35.198521
  202  C       3    2.81   0.00         2    0    1  -0.023   -3.442194   -5.522601   37.685892
  203  C       3    2.81   0.00         2    0    1  -0.019   -3.594682   -4.571716   40.156028
  204  C       3    2.81   0.00         2    0    1  -0.018   -5.583970   -3.016819   40.852965
  205  C       3    2.81   0.00         2    0    1  -0.019   -7.485936   -2.478181   39.082515
  206  C       3    2.81   0.00         2    0    1  -0.023   -7.378409   -3.453438   36.651314
  207  H       1    0.97   0.00         0    0    0   0.071   -8.926151   -3.079624   35.363288
  208  H       1    0.97   0.00         0    0    0   0.071   -1.854843   -6.716352   37.204567
  209  H       1    0.97   0.00         0    0    0   0.071   -2.180636   -5.101729   41.544057
  210  H       1    0.97   0.00         0    0    0   0.072   -5.709920   -2.332407   42.787736
  211  H       1    0.98   0.00         0    0    0   0.071   -9.080617   -1.382909   39.666423
  212  H       1    0.97   0.01         0    0    0   0.063   -3.214486   -6.793336   33.014622
  213  C       3    2.79   0.00         2    0    1   0.163  -12.956949   -8.576514   27.144872
  214  O       1    0.98   0.00         2    0    1  -0.387  -11.464406   -8.490289   25.302814
  215  C       3    2.81   0.00         2    0    1  -0.019  -15.709606   -6.024416   30.089190
  216  C       3    2.80   0.00         2    0    1   0.011  -13.630646   -6.161862   28.447591
  217  C       3    2.80   0.00         2    0    1  -0.017  -16.280091   -3.751650   31.311396
  218  C       3    2.81   0.00         2    0    1  -0.019  -14.778783   -1.601658   30.925335
  219  C       3    2.81   0.00         2    0    1  -0.013  -12.144044   -3.976906   28.039017
  220  C       3    2.80   0.00         2    0    1   0.011  -12.693612   -1.674768   29.283649
  221  H       1    0.98   0.00         0    0    0   0.063  -16.891472   -7.593954   30.464344
  222  H       1    0.97   0.00         0    0    0   0.062  -17.857347   -3.666337   32.602074
  223  H       1    0.98   0.00         0    0    0   0.067  -10.508167   -4.091631   26.856655
  224  C       3    2.79   0.00         2    0    1   0.163  -11.159436    0.637512   28.968221
  225  O       1    0.98   0.00         2    0    1  -0.387  -11.766857    2.219946   27.311319
  226  H       1    0.98   0.00         0    0    0   0.063  -15.258396    0.092445   31.926181
  227  C       3    2.79   0.00         2    0    1   0.163    1.697065   -5.581661   32.206703
  228  O       1    0.98   0.00         2    0    1  -0.387    1.268286   -4.585420   30.118360
  229  C       3    2.81   0.00         2    0    1  -0.019    2.752433   -9.751613   34.375166
  230  C       3    2.80   0.00         2    0    1   0.011    1.644054   -8.431218   32.363997
  231  C       3    2.81   0.00         2    0    1  -0.017    2.502834  -12.368003   34.518299
  232  C       3    2.81   0.00         2    0    1  -0.019    1.036774  -13.705423   32.778909
  233  C       3    2.81   0.00         2    0    1  -0.013    0.324209   -9.835334   30.496280
  234  C       3    2.80   0.00         2    0    1   0.011   -0.151509  -12.456605   30.776419
  235  H       1    0.97   0.00         0    0    0   0.063    3.831550   -8.758413   35.806616
  236  H       1    0.97   0.00         0    0    0   0.062    3.437600  -13.349086   36.060986
  237  H       1    0.97   0.00         0    0    0   0.067   -0.470122   -8.821237   28.880143
  238  C       3    2.79   0.00         2    0    1   0.163   -1.892440  -13.752224   28.970865
  239  O       1    0.98   0.00         2    0    1  -0.387   -3.004609  -12.451852   27.314915
  240  H       1    0.97   0.00         0    0    0   0.063    0.864608  -15.719122   33.069152
  241  N       3    2.78   0.00        -3    0    1  -0.195   -2.451279  -16.416699   29.110949
  242  C       3    2.80   0.00         2    0    1  -0.001   -6.524007  -16.698758   26.869280
  243  C       3    2.81   0.00         2    0    1  -0.024   -8.170018  -16.627648   28.949016
  244  C       3    2.81   0.00         2    0    1  -0.024   -7.402794  -15.812983   24.500017
  245  C       3    2.80   0.00         2    0    1  -0.024   -9.803371  -14.733983   24.272916
  246  H       1    0.97   0.00         0    0    0   0.059   -6.219683  -15.958360   22.831924
  247  C       3    2.81   0.00         2    0    1  -0.001  -11.362692  -14.524388   26.413125
  248  H       1    0.97   0.00         0    0    0   0.059  -10.426491  -14.002164   22.443226
  249  C       3    2.81   0.00         2    0    1  -0.024  -10.594025  -15.570125   28.708915
  250  H       1    0.98   0.00         0    0    0   0.059   -7.584774  -17.397012   30.735540
  251  H       1    0.97   0.00         0    0    0   0.059  -11.869325  -15.561408   30.311758
  252  C       4    3.48   0.00         3    0    0   0.009   -3.891972  -17.755357   27.128038
  253  H       1    0.97   0.01         0    0    0   0.054   -4.008267  -19.812425   27.602426
  254  H       1    0.97   0.01         0    0    0   0.054   -2.857766  -17.618556   25.287334
  255  C       4    3.49   0.00         3    0    0   0.009  -13.908033  -13.220863   26.209879
  256  N       3    2.78   0.00        -3    0    1  -0.195  -14.036265  -10.966594   27.866284
  257  H       1    0.97   0.01         0    0    0   0.054  -15.417358  -14.576505   26.748923
  258  H       1    0.97   0.01         0    0    0   0.054  -14.329121  -12.636002   24.257059
  259  H       1    0.97   0.00         0    0    0   0.129  -15.069797  -11.132831   29.557515
  260  H       1    0.97   0.00         0    0    0   0.129   -1.404495  -17.585295   30.290461
  261  N       3    2.79   0.00        -3    0    1  -0.195   -9.081617    1.135156   30.641521
  262  C       3    2.81   0.00         2    0    1  -0.001   -4.745765    2.496387   31.445658
  263  C       3    2.81   0.00         2    0    1  -0.024   -4.549678    1.923216   34.024153
  264  C       3    2.80   0.00         2    0    1  -0.024   -2.621384    2.179837   29.879126
  265  C       3    2.81   0.00         2    0    1  -0.024   -0.432647    1.041332   30.845987
  266  H       1    0.97   0.00         0    0    0   0.059   -2.693268    2.753860   27.915160
  267  C       3    2.80   0.00         2    0    1  -0.001   -0.365724    0.119922   33.349613
  268  H       1    0.97   0.00         0    0    0   0.059    1.163750    0.794033   29.601176
  269  C       3    2.81   0.00         2    0    1  -0.024   -2.392852    0.708772   34.950041
  270  H       1    0.97   0.00         0    0    0   0.059   -6.147330    2.268947   35.295043
  271  H       1    0.97   0.00         0    0    0   0.059   -2.298808    0.146996   36.913514
  272  C       4    3.49   0.00         3    0    0   0.009   -7.293095    3.243560   30.357777
  273  H       1    0.97   0.01         0    0    0   0.054   -8.055286    4.949213   31.270824
  274  H       1    0.97   0.01         0    0    0   0.054   -7.065322    3.720961   28.328201
  275  C       4    3.48   0.00         3    0    0   0.009    1.948413   -1.213752   34.369695
  276  N       3    2.78   0.00        -3    0    1  -0.195    1.673116   -4.004033   34.464578
  277  H       1    0.97   0.01         0    0    0   0.054    2.380458   -0.514132   36.283592
  278  H       1    0.97   0.01         0    0    0   0.054    3.611438   -0.737895   33.162013
  279  H       1    0.97   0.00         0    0    0   0.129    1.893324   -4.873023   36.217796
  280  H       1    0.97   0.00         0    0    0   0.129   -8.750385   -0.179734   32.060353
  281  N       3    2.74   0.00         2    0    1  -0.156   -9.115267   11.022671    2.553180
  282  C       3    2.97   0.00         2    0    1  -0.022   -9.598867   12.759636    4.385850
  283  C       3    2.80   0.00         2    0    1  -0.021  -11.903643   12.664815    5.710260
  284  C       3    2.82   0.00         2    0    1  -0.023  -13.619450   10.764858    5.156692
  285  C       3    2.81   0.00         2    0    1   0.013  -13.077561    8.974773    3.280101
  286  C       3    2.82   0.00         2    0    1   0.010  -10.798087    9.179548    1.957688
  287  C       2    1.94   0.00         1    0    1   0.001  -14.742712    6.867151    2.897158
  288  C       2    1.94   0.00         1    0    1   0.003  -16.035196    5.003408    2.735526
  289  H       1    0.97   0.00         0    0    0   0.072  -10.283728    7.800719    0.543761
  290  H       1    0.97   0.00         0    0    0   0.070   -8.226427   14.221943    4.828019
  291  H       1    0.98   0.00         0    0    0   0.073  -12.305867   14.071258    7.101635
  292  H       1    0.97   0.00         0    0    0   0.073  -15.373820   10.675060    6.209095
  293  N       3    2.78   0.00         2    0    1  -0.174   -9.115267   -9.778708    2.553180
  294  C       3    2.86   0.00         2    0    1   0.012   -9.992179  -12.165615    2.829345
  295  C       3    2.80   0.00         2    0    1  -0.019  -12.535858  -12.593130    3.401395
  296  C       3    2.82   0.00         2    0    1  -0.021  -14.186885  -10.521716    3.615730
  297  C       3    2.80   0.00         2    0    1   0.012  -13.269563   -8.074795    3.274835
  298  C       3    2.83   0.00         2    0    1   0.011  -10.688827   -7.731723    2.768583
  299  C       2    1.94   0.00         1    0    1   0.000  -14.913989   -5.938893    3.423346
  300  C       2    1.94   0.00         1    0    1   0.003  -16.277343   -4.097657    3.495375
  301  H       1    0.97   0.00         0    0    0   0.071   -9.920610   -5.846083    2.524479
  302  H       1    0.97   0.00         0    0    0   0.073   -8.719112  -13.765206    2.519120
  303  H       1    0.97   0.00         0    0    0   0.075  -13.290210  -14.499257    3.534712
  304  H       1    0.98   0.00         0    0    0   0.074  -16.137094  -10.845120    4.076613
  305  C       3    2.80   0.00         2    0    1   0.018  -21.615158    0.508877    2.507778
  306  C       3    2.81   0.00         2    0    1  -0.016  -20.155985    2.778294    2.372241
  307  C       3    2.81   0.00         2    0    1   0.017  -17.518625    2.704597    2.739449
  308  C       3    2.83   0.00         2    0    1  -0.025  -16.382803    0.475644    3.461031
  309  C       3    2.81   0.00         2    0    1   0.017  -17.741399   -1.789062    3.453873
  310  C       3    2.81   0.00         2    0    1  -0.016  -20.330254   -1.787460    2.955834
  311  H       1    0.98   0.00         0    0    0   0.080  -21.409949   -3.504574    2.997353
  312  H       1    0.97   0.01         0    0    0   0.080  -21.099688    4.620926    1.970170
  313  H       1    0.97   0.00         0    0    0   0.077  -14.342610    0.424536    3.822116
  314  C       3    2.79   0.00         2    0    1   0.168  -24.476547    0.790013    2.807713
  315  O       1    0.98   0.00         2    0    1  -0.368  -25.284658    2.984176    3.223362
  316  N       3    2.78   0.00        -3    0    1  -0.172  -25.844657   -1.324666    3.862566
  317  C       4    3.49   0.00         3    0    0   0.005  -28.197756   -2.227373    2.685023
  318  C       3    2.79   0.00         2    0    1   0.166  -29.846689   -3.542834    4.595861
  319  H       1    0.97   0.01         0    0    0   0.082  -29.281442   -0.628324    1.857967
  320  H       1    0.97   0.01         0    0    0   0.082  -27.640370   -3.632800    1.254599
  321  O       1    0.98   0.00         2    0    1  -0.368  -29.460616   -3.220280    6.924581
  322  N       3    2.78   0.00        -3    0    1  -0.188  -31.751340   -5.336834    3.827474
  323  H       1    0.97   0.01         0    0    0   0.143  -25.003567   -2.445995    5.293969
  324  C       4    3.48   0.00         3    0    0   0.001  -34.112416   -4.551036    2.577813
  325  H       1    0.97   0.00         0    0    0   0.140  -31.419130   -7.272418    4.083537
  326  H       1    0.97   0.01         0    0    0   0.069  -34.644584   -2.683736    3.335510
  327  H       1    0.97   0.01         0    0    0   0.069  -33.789445   -4.399796    0.512063
  328  C       4    3.49   0.00         3    0    0  -0.015  -36.358849   -6.397692    3.176229
  329  C       3    2.81   0.00         2    0    1  -0.001  -38.957517   -5.173682    3.058831
  330  C       3    2.81   0.00         2    0    1  -0.001  -36.419367   -8.757060    1.548458
  331  C       3    2.81   0.00         2    0    1  -0.023  -36.225326   -8.599385   -1.106933
  332  C       3    2.80   0.00         2    0    1  -0.019  -36.665963  -10.731113   -2.619398
  333  C       3    2.81   0.00         2    0    1  -0.018  -37.320978  -13.011321   -1.498568
  334  C       3    2.81   0.00         2    0    1  -0.019  -37.555106  -13.200121    1.128482
  335  C       3    2.81   0.00         2    0    1  -0.023  -37.128217  -11.082972    2.646327
  336  H       1    0.97   0.00         0    0    0   0.071  -37.493779  -11.199240    4.654027
  337  H       1    0.97   0.00         0    0    0   0.071  -35.837564   -6.836700   -2.068819
  338  H       1    0.98   0.00         0    0    0   0.071  -36.549622  -10.591886   -4.639984
  339  H       1    0.97   0.00         0    0    0   0.072  -37.781487  -14.624561   -2.665220
  340  H       1    0.98   0.00         0    0    0   0.071  -38.259034  -14.918706    1.945042
  341  C       3    2.81   0.00         2    0    1  -0.023  -40.746407   -5.731218    4.933768
  342  C       3    2.81   0.00         2    0    1  -0.019  -43.216543   -4.780330    4.781281
  343  C       3    2.81   0.00         2    0    1  -0.018  -43.913480   -3.225433    2.791993
  344  C       3    2.81   0.00         2    0    1  -0.019  -42.143028   -2.686797    0.890027
  345  C       3    2.81   0.00         2    0    1  -0.023  -39.711829   -3.662055    0.997556
  346  H       1    0.97   0.00         0    0    0   0.071  -38.423802   -3.288240   -0.550188
  347  H       1    0.97   0.00         0    0    0   0.071  -40.265081   -6.924967    6.521119
  348  H       1    0.97   0.00         0    0    0   0.071  -44.604570   -5.310345    6.195329
  349  H       1    0.97   0.00         0    0    0   0.072  -45.848251   -2.541024    2.666044
  350  H       1    0.98   0.00         0    0    0   0.071  -42.726936   -1.591525   -0.704652
  351  H       1    0.97   0.01         0    0    0   0.063  -36.075137   -7.001952    5.161477
  352  C       3    2.79   0.00         2    0    1   0.163  -30.205387   -8.785128   -4.580987
  353  O       1    0.98   0.00         2    0    1  -0.387  -28.363328   -8.698906   -3.088443
  354  C       3    2.81   0.00         2    0    1  -0.019  -33.149703   -6.233032   -7.333641
  355  C       3    2.80   0.00         2    0    1   0.011  -31.508104   -6.370478   -5.254682
  356  C       3    2.80   0.00         2    0    1  -0.017  -34.371912   -3.960265   -7.904128
  357  C       3    2.81   0.00         2    0    1  -0.019  -33.985850   -1.810274   -6.402819
  358  C       3    2.81   0.00         2    0    1  -0.013  -31.099532   -4.185520   -3.768080
  359  C       3    2.80   0.00         2    0    1   0.011  -32.344162   -1.883384   -4.317650
  360  H       1    0.98   0.00         0    0    0   0.063  -33.524859   -7.802571   -8.515510
  361  H       1    0.97   0.00         0    0    0   0.062  -35.662587   -3.874953   -9.481382
  362  H       1    0.98   0.00         0    0    0   0.067  -29.917170   -4.300245   -2.132202
  363  C       3    2.79   0.00         2    0    1   0.163  -32.028735    0.428896   -2.783472
  364  O       1    0.98   0.00         2    0    1  -0.387  -30.371834    2.011330   -3.390892
  365  H       1    0.98   0.00         0    0    0   0.063  -34.986696   -0.116169   -6.882433
  366  C       3    2.79   0.00         2    0    1   0.163  -35.267217   -5.790275   10.073029
  367  O       1    0.98   0.00         2    0    1  -0.387  -33.178875   -4.794034    9.644250
  368  C       3    2.81   0.00         2    0    1  -0.019  -37.435679   -9.960230   11.128396
  369  C       3    2.80   0.00         2    0    1   0.011  -35.424510   -8.639835   10.020019
  370  C       3    2.81   0.00         2    0    1  -0.017  -37.578814  -12.576619   10.878799
  371  C       3    2.81   0.00         2    0    1  -0.019  -35.839422  -13.914037    9.412736
  372  C       3    2.81   0.00         2    0    1  -0.013  -33.556795  -10.043948    8.700172
  373  C       3    2.80   0.00         2    0    1   0.011  -33.836932  -12.665221    8.224454
  374  H       1    0.97   0.00         0    0    0   0.063  -38.867131   -8.967027   12.207514
  375  H       1    0.97   0.00         0    0    0   0.062  -39.121502  -13.557703   11.813563
  376  H       1    0.97   0.00         0    0    0   0.067  -31.940656   -9.029853    7.905842
  377  C       3    2.79   0.00         2    0    1   0.163  -32.031380  -13.960840    6.483525
  378  O       1    0.98   0.00         2    0    1  -0.387  -30.375428  -12.660468    5.371353
  379  H       1    0.97   0.00         0    0    0   0.063  -36.129667  -15.927738    9.240573
  380  N       3    2.78   0.00        -3    0    1  -0.195  -32.171462  -16.625314    5.924686
  381  C       3    2.80   0.00         2    0    1  -0.001  -29.929795  -16.907372    1.851956
  382  C       3    2.81   0.00         2    0    1  -0.024  -32.009531  -16.836264    0.205946
  383  C       3    2.81   0.00         2    0    1  -0.024  -27.560530  -16.021597    0.973171
  384  C       3    2.80   0.00         2    0    1  -0.024  -27.333429  -14.942598   -1.427408
  385  H       1    0.97   0.00         0    0    0   0.059  -25.892437  -16.166974    2.156281
  386  C       3    2.81   0.00         2    0    1  -0.001  -29.473638  -14.733005   -2.986729
  387  H       1    0.97   0.00         0    0    0   0.059  -25.503740  -14.210779   -2.050527
  388  C       3    2.81   0.00         2    0    1  -0.024  -31.769430  -15.778741   -2.218060
  389  H       1    0.98   0.00         0    0    0   0.059  -33.796054  -17.605628    0.791190
  390  H       1    0.97   0.00         0    0    0   0.059  -33.372271  -15.770024   -3.493363
  391  C       4    3.48   0.00         3    0    0   0.009  -30.188553  -17.963971    4.483991
  392  H       1    0.97   0.01         0    0    0   0.054  -30.662941  -20.021040    4.367697
  393  H       1    0.97   0.01         0    0    0   0.054  -28.347849  -17.827172    5.518196
  394  C       4    3.49   0.00         3    0    0   0.009  -29.270394  -13.429479   -5.532069
  395  N       3    2.78   0.00        -3    0    1  -0.195  -30.926799  -11.175210   -5.660302
  396  H       1    0.97   0.01         0    0    0   0.054  -29.809437  -14.785119   -7.041393
  397  H       1    0.97   0.01         0    0    0   0.054  -27.317572  -12.844617   -5.953156
  398  H       1    0.97   0.00         0    0    0   0.129  -32.618030  -11.341445   -6.693833
  399  H       1    0.97   0.00         0    0    0   0.129  -33.350974  -17.793911    6.971469
  400  N       3    2.79   0.00        -3    0    1  -0.195  -33.702036    0.926540   -0.705652
  401  C       3    2.81   0.00         2    0    1  -0.001  -34.506173    2.287770    3.630198
  402  C       3    2.81   0.00         2    0    1  -0.024  -37.084668    1.714599    3.826285
  403  C       3    2.80   0.00         2    0    1  -0.024  -32.939639    1.971220    5.754578
  404  C       3    2.81   0.00         2    0    1  -0.024  -33.906502    0.832717    7.943318
  405  H       1    0.97   0.00         0    0    0   0.059  -30.975673    2.545244    5.682695
  406  C       3    2.80   0.00         2    0    1  -0.001  -36.410128   -0.088692    8.010240
  407  H       1    0.97   0.00         0    0    0   0.059  -32.661691    0.585416    9.539713
  408  C       3    2.81   0.00         2    0    1  -0.024  -38.010556    0.500156    5.983112
  409  H       1    0.97   0.00         0    0    0   0.059  -38.355558    2.060330    2.228633
  410  H       1    0.97   0.00         0    0    0   0.059  -39.974027   -0.061618    6.077156
  411  C       4    3.49   0.00         3    0    0   0.009  -33.418292    3.034943    1.082870
  412  H       1    0.97   0.01         0    0    0   0.054  -34.331337    4.740597    0.320677
  413  H       1    0.97   0.01         0    0    0   0.054  -31.388717    3.512345    1.310642
  414  C       4    3.48   0.00         3    0    0   0.009  -37.430208   -1.422368   10.324378
  415  N       3    2.78   0.00        -3    0    1  -0.195  -37.525091   -4.212649   10.049079
  416  H       1    0.97   0.01         0    0    0   0.054  -39.344107   -0.722746   10.756420
  417  H       1    0.97   0.01         0    0    0   0.054  -36.222528   -0.946511   11.987401
  418  H       1    0.97   0.00         0    0    0   0.129  -39.278309   -5.081639   10.269289
  419  H       1    0.97   0.00         0    0    0   0.129  -35.120867   -0.388348   -0.374421
  420  N       3    2.78   0.00         2    0    1  -0.156   -4.677964   10.970256   -1.189184
  421  C       3    3.25   0.00         2    0    1  -0.022   -6.510631   12.707222   -1.672784
  422  C       3    2.80   0.00         2    0    1  -0.021   -7.835042   12.612401   -3.977559
  423  C       3    2.82   0.00         2    0    1  -0.023   -7.281475   10.712443   -5.693366
  424  C       3    2.81   0.00         2    0    1   0.013   -5.404885    8.922360   -5.151480
  425  C       3    2.82   0.00         2    0    1   0.010   -4.082471    9.127134   -2.872004
  426  C       2    1.94   0.00         1    0    1   0.001   -5.021941    6.814737   -6.816629
  427  C       2    1.94   0.00         1    0    1   0.003   -4.860307    4.950993   -8.109113
  428  H       1    0.97   0.00         0    0    0   0.072   -2.668542    7.748303   -2.357645
  429  H       1    0.98   0.01         0    0    0   0.070   -6.952801   14.169528   -0.300344
  430  H       1    0.98   0.00         0    0    0   0.073   -9.226419   14.018843   -4.379784
  431  H       1    0.97   0.00         0    0    0   0.073   -8.333877   10.622645   -7.447737
  432  N       3    2.79   0.00         2    0    1  -0.174   -4.677964   -9.831124   -1.189184
  433  C       3    2.89   0.00         2    0    1   0.012   -4.954126  -12.218031   -2.066096
  434  C       3    2.80   0.00         2    0    1  -0.019   -5.526177  -12.645545   -4.609775
  435  C       3    2.82   0.00         2    0    1  -0.021   -5.740513  -10.574130   -6.260802
  436  C       3    2.80   0.00         2    0    1   0.012   -5.399616   -8.127211   -5.343480
  437  C       3    2.85   0.00         2    0    1   0.011   -4.893366   -7.784136   -2.762743
  438  C       2    1.94   0.00         1    0    1   0.000   -5.548130   -5.991308   -6.987906
  439  C       2    1.94   0.00         1    0    1   0.003   -5.620158   -4.150073   -8.351260
  440  H       1    0.97   0.00         0    0    0   0.071   -4.649263   -5.898498   -1.994526
  441  H       1    0.97   0.00         0    0    0   0.073   -4.643901  -13.817621   -0.793029
  442  H       1    0.97   0.00         0    0    0   0.075   -5.659493  -14.551672   -5.364127
  443  H       1    0.98   0.00         0    0    0   0.074   -6.201396  -10.897534   -8.211010
  444  C       3    2.80   0.00         2    0    1   0.018   -4.632561    0.456461  -13.689075
  445  C       3    2.81   0.00         2    0    1  -0.016   -4.497024    2.725879  -12.229902
  446  C       3    2.81   0.00         2    0    1   0.017   -4.864232    2.652181   -9.592542
  447  C       3    2.83   0.00         2    0    1  -0.025   -5.585813    0.423229   -8.456720
  448  C       3    2.81   0.00         2    0    1   0.017   -5.578656   -1.841477   -9.815316
  449  C       3    2.81   0.00         2    0    1  -0.016   -5.080617   -1.839873  -12.404172
  450  H       1    0.98   0.00         0    0    0   0.080   -5.122136   -3.556988  -13.483866
  451  H       1    0.97   0.01         0    0    0   0.080   -4.094953    4.568511  -13.173605
  452  H       1    0.97   0.00         0    0    0   0.077   -5.946900    0.372123   -6.416527
  453  C       3    2.79   0.00         2    0    1   0.168   -4.932497    0.737600  -16.550464
  454  O       1    0.98   0.00         2    0    1  -0.368   -5.348144    2.931761  -17.358575
  455  N       3    2.78   0.00        -3    0    1  -0.172   -5.987349   -1.377079  -17.918574
  456  C       4    3.49   0.00         3    0    0   0.005   -4.809806   -2.279786  -20.271672
  457  C       3    2.79   0.00         2    0    1   0.166   -6.720642   -3.595249  -21.920606
  458  H       1    0.97   0.01         0    0    0   0.082   -3.982751   -0.680740  -21.355358
  459  H       1    0.97   0.01         0    0    0   0.082   -3.379380   -3.685213  -19.714286
  460  O       1    0.98   0.00         2    0    1  -0.368   -9.049365   -3.272694  -21.534533
  461  N       3    2.78   0.00        -3    0    1  -0.188   -5.952255   -5.389249  -23.825257
  462  H       1    0.97   0.01         0    0    0   0.143   -7.418750   -2.498409  -17.077484
  463  C       4    3.48   0.00         3    0    0   0.001   -4.702596   -4.603452  -26.186333
  464  H       1    0.97   0.00         0    0    0   0.140   -6.208320   -7.324833  -23.493047
  465  H       1    0.97   0.01         0    0    0   0.069   -5.460293   -2.736151  -26.718501
  466  H       1    0.97   0.01         0    0    0   0.069   -2.636846   -4.452211  -25.863362
  467  C       4    3.49   0.00         3    0    0  -0.015   -5.301010   -6.450105  -28.432766
  468  C       3    2.81   0.00         2    0    1  -0.001   -5.183613   -5.226098  -31.031434
  469  C       3    2.81   0.00         2    0    1  -0.001   -3.673242   -8.809473  -28.493284
  470  C       3    2.81   0.00         2    0    1  -0.023   -1.017850   -8.651798  -28.299243
  471  C       3    2.80   0.00         2    0    1  -0.019    0.494615  -10.783528  -28.739880
  472  C       3    2.81   0.00         2    0    1  -0.018   -0.626214  -13.063734  -29.394895
  473  C       3    2.81   0.00         2    0    1  -0.019   -3.253265  -13.252535  -29.629023
  474  C       3    2.81   0.00         2    0    1  -0.023   -4.771108  -11.135386  -29.202134
  475  H       1    0.97   0.00         0    0    0   0.071   -6.778810  -11.251655  -29.567695
  476  H       1    0.97   0.00         0    0    0   0.071   -0.055964   -6.889115  -27.911481
  477  H       1    0.98   0.00         0    0    0   0.071    2.515203  -10.644299  -28.623539
  478  H       1    0.97   0.00         0    0    0   0.072    0.540439  -14.676976  -29.855404
  479  H       1    0.98   0.00         0    0    0   0.071   -4.069825  -14.971120  -30.332951
  480  C       3    2.81   0.00         2    0    1  -0.023   -7.058552   -5.783631  -32.820324
  481  C       3    2.81   0.00         2    0    1  -0.019   -6.906064   -4.832745  -35.290460
  482  C       3    2.81   0.00         2    0    1  -0.018   -4.916776   -3.277849  -35.987397
  483  C       3    2.81   0.00         2    0    1  -0.019   -3.014810   -2.739211  -34.216947
  484  C       3    2.81   0.00         2    0    1  -0.023   -3.122337   -3.714468  -31.785746
  485  H       1    0.97   0.00         0    0    0   0.071   -1.574595   -3.340656  -30.497718
  486  H       1    0.97   0.00         0    0    0   0.071   -8.645903   -6.977382  -32.338999
  487  H       1    0.97   0.00         0    0    0   0.071   -8.320112   -5.362761  -36.678487
  488  H       1    0.97   0.00         0    0    0   0.072   -4.790826   -2.593439  -37.922168
  489  H       1    0.98   0.00         0    0    0   0.071   -1.420129   -1.643941  -34.800853
  490  H       1    0.97   0.01         0    0    0   0.063   -7.286260   -7.054366  -28.149053
  491  C       3    2.79   0.00         2    0    1   0.163    2.456203   -8.837543  -22.279304
  492  O       1    0.98   0.00         2    0    1  -0.387    0.963660   -8.751321  -20.437246
  493  C       3    2.81   0.00         2    0    1  -0.019    5.208860   -6.285448  -25.223620
  494  C       3    2.80   0.00         2    0    1   0.011    3.129898   -6.422891  -23.582022
  495  C       3    2.80   0.00         2    0    1  -0.017    5.779345   -4.012680  -26.445828
  496  C       3    2.81   0.00         2    0    1  -0.019    4.278035   -1.862688  -26.059767
  497  C       3    2.81   0.00         2    0    1  -0.013    1.643296   -4.237935  -23.173449
  498  C       3    2.80   0.00         2    0    1   0.011    2.192866   -1.935799  -24.418079
  499  H       1    0.98   0.00         0    0    0   0.063    6.390726   -7.854984  -25.598776
  500  H       1    0.97   0.00         0    0    0   0.062    7.356601   -3.927366  -27.736506
  501  H       1    0.98   0.00         0    0    0   0.067    0.007419   -4.352661  -21.991087
  502  C       3    2.79   0.00         2    0    1   0.163    0.658690    0.376483  -24.102651
  503  O       1    0.98   0.00         2    0    1  -0.387    1.266109    1.958916  -22.445751
  504  H       1    0.98   0.00         0    0    0   0.063    4.757650   -0.168584  -27.060613
  505  C       3    2.79   0.00         2    0    1   0.163  -12.197811   -5.842691  -27.341133
  506  O       1    0.98   0.00         2    0    1  -0.387  -11.769032   -4.846450  -25.252791
  507  C       3    2.81   0.00         2    0    1  -0.019  -13.253179  -10.012643  -29.509596
  508  C       3    2.80   0.00         2    0    1   0.011  -12.144800   -8.692248  -27.498427
  509  C       3    2.81   0.00         2    0    1  -0.017  -13.003580  -12.629033  -29.652731
  510  C       3    2.81   0.00         2    0    1  -0.019  -11.537520  -13.966452  -27.913339
  511  C       3    2.81   0.00         2    0    1  -0.013  -10.824955  -10.096364  -25.630712
  512  C       3    2.80   0.00         2    0    1   0.011  -10.349237  -12.717636  -25.910851
  513  H       1    0.97   0.00         0    0    0   0.063  -14.332296   -9.019443  -30.941048
  514  H       1    0.97   0.00         0    0    0   0.062  -13.938346  -13.610116  -31.195418
  515  H       1    0.97   0.00         0    0    0   0.067  -10.030626   -9.082267  -24.014573
  516  C       3    2.79   0.00         2    0    1   0.163   -8.608306  -14.013253  -24.105297
  517  O       1    0.98   0.00         2    0    1  -0.387   -7.496137  -12.712884  -22.449345
  518  H       1    0.97   0.00         0    0    0   0.063  -11.365354  -15.980154  -28.203583
  519  N       3    2.78   0.00        -3    0    1  -0.195   -8.049469  -16.677729  -24.245379
  520  C       3    2.80   0.00         2    0    1  -0.001   -3.976739  -16.959788  -22.003712
  521  C       3    2.81   0.00         2    0    1  -0.024   -2.330729  -16.888679  -24.083448
  522  C       3    2.81   0.00         2    0    1  -0.024   -3.097954  -16.074013  -19.634447
  523  C       3    2.80   0.00         2    0    1  -0.024   -0.697375  -14.995013  -19.407346
  524  H       1    0.97   0.00         0    0    0   0.059   -4.281063  -16.219389  -17.966354
  525  C       3    2.81   0.00         2    0    1  -0.001    0.861946  -14.785418  -21.547555
  526  H       1    0.97   0.00         0    0    0   0.059   -0.074257  -14.263194  -17.577656
  527  C       3    2.81   0.00         2    0    1  -0.024    0.093279  -15.831156  -23.843347
  528  H       1    0.98   0.00         0    0    0   0.059   -2.915974  -17.658043  -25.869970
  529  H       1    0.97   0.00         0    0    0   0.059    1.368579  -15.822437  -25.446188
  530  C       4    3.48   0.00         3    0    0   0.009   -6.608774  -18.016386  -22.262470
  531  H       1    0.97   0.01         0    0    0   0.054   -6.492480  -20.073455  -22.736858
  532  H       1    0.97   0.01         0    0    0   0.054   -7.642980  -17.879587  -20.421766
  533  C       4    3.49   0.00         3    0    0   0.009    3.407287  -13.481895  -21.344311
  534  N       3    2.78   0.00        -3    0    1  -0.195    3.535519  -11.227625  -23.000716
  535  H       1    0.97   0.01         0    0    0   0.054    4.916610  -14.837535  -21.883353
  536  H       1    0.97   0.01         0    0    0   0.054    3.828373  -12.897032  -19.391491
  537  H       1    0.97   0.00         0    0    0   0.129    4.569051  -11.393861  -24.691947
  538  H       1    0.97   0.00         0    0    0   0.129   -9.096251  -17.846324  -25.424891
  539  N       3    2.79   0.00        -3    0    1  -0.195   -1.419131    0.874125  -25.775953
  540  C       3    2.81   0.00         2    0    1  -0.001   -5.754981    2.235357  -26.580090
  541  C       3    2.81   0.00         2    0    1  -0.024   -5.951068    1.662184  -29.158585
  542  C       3    2.80   0.00         2    0    1  -0.024   -7.879362    1.918807  -25.013556
  543  C       3    2.81   0.00         2    0    1  -0.024  -10.068099    0.780302  -25.980419
  544  H       1    0.97   0.00         0    0    0   0.059   -7.807478    2.492828  -23.049590
  545  C       3    2.80   0.00         2    0    1  -0.001  -10.135024   -0.141108  -28.484045
  546  H       1    0.97   0.00         0    0    0   0.059  -11.664496    0.533003  -24.735607
  547  C       3    2.81   0.00         2    0    1  -0.024   -8.107894    0.447740  -30.084473
  548  H       1    0.97   0.00         0    0    0   0.059   -4.353416    2.007917  -30.429475
  549  H       1    0.97   0.00         0    0    0   0.059   -8.201938   -0.114034  -32.047944
  550  C       4    3.49   0.00         3    0    0   0.009   -3.207651    2.982530  -25.492208
  551  H       1    0.97   0.01         0    0    0   0.054   -2.445460    4.688181  -26.405254
  552  H       1    0.97   0.01         0    0    0   0.054   -3.435424    3.459929  -23.462633
  553  C       4    3.48   0.00         3    0    0   0.009  -12.449161   -1.474784  -29.504125
  554  N       3    2.78   0.00        -3    0    1  -0.195  -12.173862   -4.265062  -29.599010
  555  H       1    0.97   0.01         0    0    0   0.054  -12.881204   -0.775162  -31.418024
  556  H       1    0.97   0.01         0    0    0   0.054  -14.112184   -0.998926  -28.296445
  557  H       1    0.97   0.00         0    0    0   0.129  -12.394072   -5.134053  -31.352226
  558  H       1    0.97   0.00         0    0    0   0.129   -1.750361   -0.440763  -27.194783
 
          #atoms :   558
          #bonds :   600
          #angl  :   986
          #tors  :   1652
          #nmol  :   5
          #optfrag :   5
           ------------------------------------------------- 
          |                   G F N - F F                   |
          |          A general generic force-field          |
          |                  Version 1.0.1                  | 
           ------------------------------------------------- 

 E+G (total)                   0 d,  0 h,  0 min,  0.074 sec
 distance/D3 list               ...        0 min,  0.001 sec (  0.866%)
 non bonded repulsion           ...        0 min,  0.002 sec (  2.768%)
 dCN                            ...        0 min,  0.010 sec ( 13.762%)
 EEQ energy and q               ...        0 min,  0.005 sec (  7.186%)
 D3                             ...        0 min,  0.021 sec ( 27.810%)
 EEQ gradient                   ...        0 min,  0.005 sec (  7.380%)
 bonds                          ...        0 min,  0.006 sec (  7.665%)
 bend and torsion               ...        0 min,  0.001 sec (  1.014%)
 bonded ATM                     ...        0 min,  0.000 sec (  0.525%)
 HB/XB (incl list setup)        ...        0 min,  0.023 sec ( 30.930%)

         :::::::::::::::::::::::::::::::::::::::::::::::::::::
         ::                     SUMMARY                     ::
         :::::::::::::::::::::::::::::::::::::::::::::::::::::
         :: total energy            -110.654483334893 Eh    ::
         :: gradient norm              0.480432694301 Eh/a0 ::
         ::.................................................::
         :: bond energy             -120.473983592347 Eh    ::
         :: angle energy               0.150324478464 Eh    ::
         :: torsion energy             0.271456183588 Eh    ::
         :: repulsion energy           6.990639852761 Eh    ::
         :: electrostat energy         3.283599178932 Eh    ::
         :: dispersion energy         -0.711295232480 Eh    ::
         :: HB energy                 -0.039733379982 Eh    ::
         :: XB energy                  0.000000000000 Eh    ::
         :: bonded atm energy         -0.125490823829 Eh    ::
         :: external energy            0.000000000000 Eh    ::
         :: add. restraining           0.000000000000 Eh    ::
         :::::::::::::::::::::::::::::::::::::::::::::::::::::

      ----------------------------------------------------------- 
     |                       L-ANC optimizer                     |
      ----------------------------------------------------------- 
          low memory version by Sebastian Ehlert

          ...................................................
          :                      SETUP                      :
          :.................................................:
          :   energy convergence        0.5000000E-05 Eh    :
          :   grad. convergence         0.1000000E-02 Eh/a0 :
          :   optimization log               true           :
          :   writing optlog all                1     steps :
          :   Hessian reset                    20     steps :
          :   maximium step len.        1.0000000     a0    :
          :   LBFGS images                     20           :
          ...................................................
 * calculating model hessian...
Using GFN-FF Lindh-Hessian
 * fragmented diagonalization... 9 fragments
 Shifting diagonal of input Hessian by   2.000876865487953E-002
 Lowest  eigenvalues of input Hessian
   -0.000009   -0.000009   -0.000008   -0.000008   -0.000008   -0.000008
   -0.000007   -0.000006   -0.000006   -0.000005   -0.000005   -0.000005
   -0.000003   -0.000003   -0.000003   -0.000003   -0.000001   -0.000001
 Highest eigenvalues
    2.995567    2.996305    3.017338    3.018540    3.019473    3.021188
 

........................................................................
.............................. CYCLE    1 ..............................
........................................................................
 * total energy  :  -110.8156604 Eh     change       -0.1611771E+00 Eh
   gradient norm :     0.2717215 Eh/a0  converged?    E=F G=F D=F
   step length   :     0.5492774 a0

........................................................................
.............................. CYCLE    2 ..............................
........................................................................
 * total energy  :  -110.9258017 Eh     change       -0.1101413E+00 Eh
   gradient norm :     0.1533590 Eh/a0  converged?    E=F G=F D=F
   step length   :     2.2432428 a0

........................................................................
.............................. CYCLE    3 ..............................
........................................................................
 * total energy  :  -110.9838841 Eh     change       -0.5808240E-01 Eh
   gradient norm :     0.1115115 Eh/a0  converged?    E=F G=F D=F
   step length   :     2.9730258 a0

........................................................................
.............................. CYCLE    4 ..............................
........................................................................
 * total energy  :  -111.0234983 Eh     change       -0.3961419E-01 Eh
   gradient norm :     0.0950731 Eh/a0  converged?    E=F G=F D=F
   step length   :     3.6701549 a0

........................................................................
.............................. CYCLE    5 ..............................
........................................................................
 * total energy  :  -111.0539089 Eh     change       -0.3041064E-01 Eh
   gradient norm :     0.0872922 Eh/a0  converged?    E=F G=F D=F
   step length   :     4.2783796 a0

........................................................................
.............................. CYCLE    6 ..............................
........................................................................
 * total energy  :  -111.0787441 Eh     change       -0.2483518E-01 Eh
   gradient norm :     0.0827403 Eh/a0  converged?    E=F G=F D=F
   step length   :     4.8317646 a0

........................................................................
.............................. CYCLE    7 ..............................
........................................................................
 * total energy  :  -111.0993973 Eh     change       -0.2065320E-01 Eh
   gradient norm :     0.0782989 Eh/a0  converged?    E=F G=F D=F
   step length   :     5.0595621 a0

........................................................................
.............................. CYCLE    8 ..............................
........................................................................
 * total energy  :  -111.1167566 Eh     change       -0.1735929E-01 Eh
   gradient norm :     0.0723249 Eh/a0  converged?    E=F G=F D=F
   step length   :     4.4557463 a0

........................................................................
.............................. CYCLE    9 ..............................
........................................................................
 * total energy  :  -111.1314330 Eh     change       -0.1467637E-01 Eh
   gradient norm :     0.0667382 Eh/a0  converged?    E=F G=F D=F
   step length   :     4.2431702 a0

........................................................................
.............................. CYCLE   10 ..............................
........................................................................
 * total energy  :  -111.1437999 Eh     change       -0.1236693E-01 Eh
   gradient norm :     0.0590079 Eh/a0  converged?    E=F G=F D=F
   step length   :     3.9396840 a0

........................................................................
.............................. CYCLE   11 ..............................
........................................................................
 * total energy  :  -111.1541463 Eh     change       -0.1034642E-01 Eh
   gradient norm :     0.0531489 Eh/a0  converged?    E=F G=F D=F
   step length   :     3.6384867 a0

........................................................................
.............................. CYCLE   12 ..............................
........................................................................
 * total energy  :  -111.1629033 Eh     change       -0.8756946E-02 Eh
   gradient norm :     0.0475383 Eh/a0  converged?    E=F G=F D=F
   step length   :     3.4529777 a0

........................................................................
.............................. CYCLE   13 ..............................
........................................................................
 * total energy  :  -111.1700976 Eh     change       -0.7194298E-02 Eh
   gradient norm :     0.0449466 Eh/a0  converged?    E=F G=F D=F
   step length   :     3.7511958 a0

........................................................................
.............................. CYCLE   14 ..............................
........................................................................
 * total energy  :  -111.1766538 Eh     change       -0.6556226E-02 Eh
   gradient norm :     0.0432828 Eh/a0  converged?    E=F G=F D=F
   step length   :     3.7758988 a0

........................................................................
.............................. CYCLE   15 ..............................
........................................................................
 * total energy  :  -111.1826465 Eh     change       -0.5992682E-02 Eh
   gradient norm :     0.0434306 Eh/a0  converged?    E=F G=F D=F
   step length   :     3.1454584 a0

........................................................................
.............................. CYCLE   16 ..............................
........................................................................
 * total energy  :  -111.1884427 Eh     change       -0.5796193E-02 Eh
   gradient norm :     0.0456420 Eh/a0  converged?    E=F G=F D=F
   step length   :     3.5723820 a0

........................................................................
.............................. CYCLE   17 ..............................
........................................................................
 * total energy  :  -111.1940090 Eh     change       -0.5566320E-02 Eh
   gradient norm :     0.0568862 Eh/a0  converged?    E=F G=F D=F
   step length   :     4.9684017 a0

........................................................................
.............................. CYCLE   18 ..............................
........................................................................
 * total energy  :  -111.1994492 Eh     change       -0.5440261E-02 Eh
   gradient norm :     0.0538455 Eh/a0  converged?    E=F G=F D=F
   step length   :     6.0158734 a0

........................................................................
.............................. CYCLE   19 ..............................
........................................................................
 * total energy  :  -111.2047861 Eh     change       -0.5336904E-02 Eh
   gradient norm :     0.0577539 Eh/a0  converged?    E=F G=F D=F
   step length   :     5.0306348 a0

........................................................................
.............................. CYCLE   20 ..............................
........................................................................
 * total energy  :  -111.2101914 Eh     change       -0.5405254E-02 Eh
   gradient norm :     0.0625344 Eh/a0  converged?    E=F G=F D=F
   step length   :     6.4290005 a0
 * RMSD in coord.:     0.7180571 a0     energy gain  -0.5557081E+00 Eh
 * calculating model hessian...
Using GFN-FF Lindh-Hessian
 * fragmented diagonalization... 9 fragments
 Shifting diagonal of input Hessian by   2.000713381405149E-002
 Lowest  eigenvalues of input Hessian
   -0.000007   -0.000007   -0.000007   -0.000006   -0.000005   -0.000004
   -0.000004   -0.000004   -0.000004   -0.000003   -0.000002   -0.000002
   -0.000000    0.000001    0.000001    0.000001    0.000001    0.000001
 Highest eigenvalues
    3.123223    3.129206    3.141708    3.144411    3.147867    3.259803
 

........................................................................
.............................. CYCLE   21 ..............................
........................................................................
 * total energy  :  -111.2173365 Eh     change       -0.7145110E-02 Eh
   gradient norm :     0.0348687 Eh/a0  converged?    E=F G=F D=F
   step length   :     0.3697592 a0

........................................................................
.............................. CYCLE   22 ..............................
........................................................................
 * total energy  :  -111.2287984 Eh     change       -0.1146189E-01 Eh
   gradient norm :     0.0369744 Eh/a0  converged?    E=F G=F D=F
   step length   :     1.6615811 a0

........................................................................
.............................. CYCLE   23 ..............................
........................................................................
 * total energy  :  -111.2365400 Eh     change       -0.7741641E-02 Eh
   gradient norm :     0.0614474 Eh/a0  converged?    E=F G=F D=F
   step length   :     2.0431694 a0

........................................................................
.............................. CYCLE   24 ..............................
........................................................................
 * total energy  :  -111.2433679 Eh     change       -0.6827851E-02 Eh
   gradient norm :     0.0767187 Eh/a0  converged?    E=F G=F D=F
   step length   :     2.7882748 a0

........................................................................
.............................. CYCLE   25 ..............................
........................................................................
 * total energy  :  -111.2498890 Eh     change       -0.6521149E-02 Eh
   gradient norm :     0.0829479 Eh/a0  converged?    E=F G=F D=F
   step length   :     3.3124343 a0

........................................................................
.............................. CYCLE   26 ..............................
........................................................................
 * total energy  :  -111.2568985 Eh     change       -0.7009458E-02 Eh
   gradient norm :     0.0746834 Eh/a0  converged?    E=F G=F D=F
   step length   :     2.4652138 a0

........................................................................
.............................. CYCLE   27 ..............................
........................................................................
 * total energy  :  -111.2642982 Eh     change       -0.7399733E-02 Eh
   gradient norm :     0.0562293 Eh/a0  converged?    E=F G=F D=F
   step length   :     2.6057099 a0

........................................................................
.............................. CYCLE   28 ..............................
........................................................................
 * total energy  :  -111.2706580 Eh     change       -0.6359723E-02 Eh
   gradient norm :     0.0458672 Eh/a0  converged?    E=F G=F D=F
   step length   :     3.2645938 a0

........................................................................
.............................. CYCLE   29 ..............................
........................................................................
 * total energy  :  -111.2764922 Eh     change       -0.5834228E-02 Eh
   gradient norm :     0.0398635 Eh/a0  converged?    E=F G=F D=F
   step length   :     3.7056355 a0

........................................................................
.............................. CYCLE   30 ..............................
........................................................................
 * total energy  :  -111.2817726 Eh     change       -0.5280409E-02 Eh
   gradient norm :     0.0412458 Eh/a0  converged?    E=F G=F D=F
   step length   :     4.0787580 a0

........................................................................
.............................. CYCLE   31 ..............................
........................................................................
 * total energy  :  -111.2869900 Eh     change       -0.5217414E-02 Eh
   gradient norm :     0.0400020 Eh/a0  converged?    E=F G=F D=F
   step length   :     4.3549174 a0

........................................................................
.............................. CYCLE   32 ..............................
........................................................................
 * total energy  :  -111.2914661 Eh     change       -0.4476139E-02 Eh
   gradient norm :     0.0481709 Eh/a0  converged?    E=F G=F D=F
   step length   :     5.1335890 a0

........................................................................
.............................. CYCLE   33 ..............................
........................................................................
 * total energy  :  -111.2963308 Eh     change       -0.4864628E-02 Eh
   gradient norm :     0.0450063 Eh/a0  converged?    E=F G=F D=F
   step length   :     5.7501418 a0

........................................................................
.............................. CYCLE   34 ..............................
........................................................................
 * total energy  :  -111.3004564 Eh     change       -0.4125625E-02 Eh
   gradient norm :     0.0491229 Eh/a0  converged?    E=F G=F D=F
   step length   :     5.1477979 a0

........................................................................
.............................. CYCLE   35 ..............................
........................................................................
 * total energy  :  -111.3048825 Eh     change       -0.4426071E-02 Eh
   gradient norm :     0.0479607 Eh/a0  converged?    E=F G=F D=F
   step length   :     4.8684555 a0

........................................................................
.............................. CYCLE   36 ..............................
[...]
   272   6 C    274   1 H                                 1.0967617
   227   6 C    276   7 N                                 1.3847248
   275   6 C    276   7 N                                 1.4504475
   275   6 C    277   1 H                                 1.0952563
   275   6 C    278   1 H                                 1.0959226
   276   7 N    279   1 H                                 1.0239433
   261   7 N    280   1 H                                 1.0220212
     1  46 Pd   281   7 N                                 1.9425435
   281   7 N    282   6 C                                 1.3524790
   282   6 C    283   6 C                                 1.3878086
   283   6 C    284   6 C                                 1.3805315
   284   6 C    285   6 C                                 1.3924118
   281   7 N    286   6 C                                 1.3421239
   285   6 C    286   6 C                                 1.3823045
   287   6 C    288   6 C                                 1.2215610
   286   6 C    289   1 H                                 1.0743196
   282   6 C    290   1 H                                 1.0864258
   283   6 C    291   1 H                                 1.0771958
   284   6 C    292   1 H                                 1.0764722
     2  46 Pd   293   7 N                                 2.0731842
   293   7 N    294   6 C                                 1.3440613
   294   6 C    295   6 C                                 1.3725057
   295   6 C    296   6 C                                 1.3792539
   296   6 C    297   6 C                                 1.3909303
   293   7 N    298   6 C                                 1.3425790
   297   6 C    298   6 C                                 1.3827381
   299   6 C    300   6 C                                 1.2212451
   298   6 C    301   1 H                                 1.0753555
   294   6 C    302   1 H                                 1.0760820
   295   6 C    303   1 H                                 1.0771115
   296   6 C    304   1 H                                 1.0767380
   305   6 C    306   6 C                                 1.3850803
   306   6 C    307   6 C                                 1.3881663
   307   6 C    308   6 C                                 1.3892533
   308   6 C    309   6 C                                 1.3892217
   305   6 C    310   6 C                                 1.3864984
   309   6 C    310   6 C                                 1.3870628
   310   6 C    311   1 H                                 1.0766206
   306   6 C    312   1 H                                 1.0755287
   308   6 C    313   1 H                                 1.0749366
   314   6 C    315   8 O                                 1.2212359
   314   6 C    316   7 N                                 1.3769885
   316   7 N    317   6 C                                 1.4301552
   317   6 C    319   1 H                                 1.0941664
   317   6 C    320   1 H                                 1.0915922
   318   6 C    321   8 O                                 1.2145073
   318   6 C    322   7 N                                 1.3799223
   316   7 N    323   1 H                                 1.0280173
   322   7 N    324   6 C                                 1.4529487
   322   7 N    325   1 H                                 1.0268101
   324   6 C    326   1 H                                 1.0942735
   324   6 C    327   1 H                                 1.0896241
   324   6 C    328   6 C                                 1.5342823
   330   6 C    331   6 C                                 1.3839836
   331   6 C    332   6 C                                 1.3776811
   332   6 C    333   6 C                                 1.3770437
   333   6 C    334   6 C                                 1.3775224
   330   6 C    335   6 C                                 1.3856118
   334   6 C    335   6 C                                 1.3781439
   335   6 C    336   1 H                                 1.0774580
   331   6 C    337   1 H                                 1.0759936
   332   6 C    338   1 H                                 1.0768569
   333   6 C    339   1 H                                 1.0780033
   334   6 C    340   1 H                                 1.0773035
   329   6 C    341   6 C                                 1.3858944
   341   6 C    342   6 C                                 1.3781768
   342   6 C    343   6 C                                 1.3768978
   343   6 C    344   6 C                                 1.3769641
   329   6 C    345   6 C                                 1.3849121
   344   6 C    345   6 C                                 1.3777931
   345   6 C    346   1 H                                 1.0755916
   341   6 C    347   1 H                                 1.0757996
   342   6 C    348   1 H                                 1.0778456
   343   6 C    349   1 H                                 1.0780076
   344   6 C    350   1 H                                 1.0774239
   328   6 C    351   1 H                                 1.0973340
   352   6 C    353   8 O                                 1.2204545
   354   6 C    355   6 C                                 1.3891913
   354   6 C    356   6 C                                 1.3789612
   356   6 C    357   6 C                                 1.3785566
   355   6 C    358   6 C                                 1.3821354
   357   6 C    359   6 C                                 1.3886172
   358   6 C    359   6 C                                 1.3847035
   354   6 C    360   1 H                                 1.0761976
   356   6 C    361   1 H                                 1.0775606
   358   6 C    362   1 H                                 1.0741925
   363   6 C    364   8 O                                 1.2190355
   357   6 C    365   1 H                                 1.0762456
   366   6 C    367   8 O                                 1.2203363
   368   6 C    369   6 C                                 1.3889603
   368   6 C    370   6 C                                 1.3794895
   370   6 C    371   6 C                                 1.3797513
   369   6 C    372   6 C                                 1.3828488
   371   6 C    373   6 C                                 1.3897325
   372   6 C    373   6 C                                 1.3856846
   368   6 C    374   1 H                                 1.0762724
   370   6 C    375   1 H                                 1.0777027
   372   6 C    376   1 H                                 1.0761067
   377   6 C    378   8 O                                 1.2197821
   371   6 C    379   1 H                                 1.0754663
   377   6 C    380   7 N                                 1.3817138
   381   6 C    382   6 C                                 1.3852337
   381   6 C    383   6 C                                 1.3840286
   383   6 C    384   6 C                                 1.3776045
   383   6 C    385   1 H                                 1.0758998
   384   6 C    386   6 C                                 1.3822380
   384   6 C    387   1 H                                 1.0774651
   382   6 C    388   6 C                                 1.3802363
   386   6 C    388   6 C                                 1.3853967
   382   6 C    389   1 H                                 1.0763437
   388   6 C    390   1 H                                 1.0763216
   380   7 N    391   6 C                                 1.4597118
   391   6 C    392   1 H                                 1.0953251
   391   6 C    393   1 H                                 1.0958727
   352   6 C    395   7 N                                 1.3839140
   394   6 C    395   7 N                                 1.4490606
   394   6 C    396   1 H                                 1.0947539
   394   6 C    397   1 H                                 1.0953263
   395   7 N    398   1 H                                 1.0222015
   380   7 N    399   1 H                                 1.0229017
   363   6 C    400   7 N                                 1.3856957
   401   6 C    402   6 C                                 1.3836173
   401   6 C    403   6 C                                 1.3845743
   403   6 C    404   6 C                                 1.3780221
   403   6 C    405   1 H                                 1.0759418
   404   6 C    406   6 C                                 1.3836659
   404   6 C    407   1 H                                 1.0769014
   402   6 C    408   6 C                                 1.3797344
   406   6 C    408   6 C                                 1.3851374
   402   6 C    409   1 H                                 1.0763877
   408   6 C    410   1 H                                 1.0762643
   400   7 N    411   6 C                                 1.4654546
   411   6 C    412   1 H                                 1.0953200
   411   6 C    413   1 H                                 1.0967859
   366   6 C    415   7 N                                 1.3846404
   414   6 C    415   7 N                                 1.4503303
   414   6 C    416   1 H                                 1.0952485
   414   6 C    417   1 H                                 1.0959580
   415   7 N    418   1 H                                 1.0238449
   400   7 N    419   1 H                                 1.0218967 (min)
     1  46 Pd   420   7 N                                 1.9409945
   420   7 N    421   6 C                                 1.3534971
   421   6 C    422   6 C                                 1.3878359
   422   6 C    423   6 C                                 1.3800110
   423   6 C    424   6 C                                 1.3921321
   420   7 N    425   6 C                                 1.3423097
   424   6 C    425   6 C                                 1.3824373
   426   6 C    427   6 C                                 1.2213971
   425   6 C    428   1 H                                 1.0743939
   421   6 C    429   1 H                                 1.0868510
   422   6 C    430   1 H                                 1.0772069
   423   6 C    431   1 H                                 1.0764723
     2  46 Pd   432   7 N                                 2.0585452
   432   7 N    433   6 C                                 1.3450750
   433   6 C    434   6 C                                 1.3722322
   434   6 C    435   6 C                                 1.3786931
   435   6 C    436   6 C                                 1.3908466
   432   7 N    437   6 C                                 1.3423390
   436   6 C    437   6 C                                 1.3831941
   438   6 C    439   6 C                                 1.2210868
   437   6 C    440   1 H                                 1.0752660
   433   6 C    441   1 H                                 1.0761919
   434   6 C    442   1 H                                 1.0771450
   435   6 C    443   1 H                                 1.0768626
   444   6 C    445   6 C                                 1.3851339
   445   6 C    446   6 C                                 1.3880810
   446   6 C    447   6 C                                 1.3888161
   447   6 C    448   6 C                                 1.3886876
   444   6 C    449   6 C                                 1.3865275
   448   6 C    449   6 C                                 1.3871375
   449   6 C    450   1 H                                 1.0766588
   445   6 C    451   1 H                                 1.0755140
   447   6 C    452   1 H                                 1.0749884
   453   6 C    454   8 O                                 1.2211740
   453   6 C    455   7 N                                 1.3770493
   455   7 N    456   6 C                                 1.4301419
   456   6 C    458   1 H                                 1.0941604
   456   6 C    459   1 H                                 1.0916526
   457   6 C    460   8 O                                 1.2144880
   457   6 C    461   7 N                                 1.3799030
   455   7 N    462   1 H                                 1.0280590
   461   7 N    463   6 C                                 1.4529722
   461   7 N    464   1 H                                 1.0268694
   463   6 C    465   1 H                                 1.0942589
   463   6 C    466   1 H                                 1.0895760
   463   6 C    467   6 C                                 1.5343775
   469   6 C    470   6 C                                 1.3839554
   470   6 C    471   6 C                                 1.3776342
   471   6 C    472   6 C                                 1.3770117
   472   6 C    473   6 C                                 1.3775325
   469   6 C    474   6 C                                 1.3856642
   473   6 C    474   6 C                                 1.3781723
   474   6 C    475   1 H                                 1.0774624
   470   6 C    476   1 H                                 1.0759957
   471   6 C    477   1 H                                 1.0768363
   472   6 C    478   1 H                                 1.0780174
   473   6 C    479   1 H                                 1.0773079
   468   6 C    480   6 C                                 1.3859138
   480   6 C    481   6 C                                 1.3781894
   481   6 C    482   6 C                                 1.3768957
   482   6 C    483   6 C                                 1.3769535
   468   6 C    484   6 C                                 1.3849127
   483   6 C    484   6 C                                 1.3777890
   484   6 C    485   1 H                                 1.0755829
   480   6 C    486   1 H                                 1.0757906
   481   6 C    487   1 H                                 1.0778421
   482   6 C    488   1 H                                 1.0780159
   483   6 C    489   1 H                                 1.0774369
   467   6 C    490   1 H                                 1.0973167
   491   6 C    492   8 O                                 1.2204795
   493   6 C    494   6 C                                 1.3892223
   493   6 C    495   6 C                                 1.3789816
   495   6 C    496   6 C                                 1.3785676
   494   6 C    497   6 C                                 1.3821915
   496   6 C    498   6 C                                 1.3886421
   497   6 C    498   6 C                                 1.3847489
   493   6 C    499   1 H                                 1.0762017
   495   6 C    500   1 H                                 1.0775580
   497   6 C    501   1 H                                 1.0741887
   502   6 C    503   8 O                                 1.2190598
   496   6 C    504   1 H                                 1.0762492
   505   6 C    506   8 O                                 1.2203163
   507   6 C    508   6 C                                 1.3889432
   507   6 C    509   6 C                                 1.3795025
   509   6 C    510   6 C                                 1.3797746
   508   6 C    511   6 C                                 1.3828043
   510   6 C    512   6 C                                 1.3897520
   511   6 C    512   6 C                                 1.3856508
   507   6 C    513   1 H                                 1.0762840
   509   6 C    514   1 H                                 1.0777059
   511   6 C    515   1 H                                 1.0761013
   516   6 C    517   8 O                                 1.2197682
   510   6 C    518   1 H                                 1.0754580
   516   6 C    519   7 N                                 1.3817040
   520   6 C    521   6 C                                 1.3852288
   520   6 C    522   6 C                                 1.3839966
   522   6 C    523   6 C                                 1.3775712
   522   6 C    524   1 H                                 1.0759113
   523   6 C    525   6 C                                 1.3822037
   523   6 C    526   1 H                                 1.0774250
   521   6 C    527   6 C                                 1.3802578
   525   6 C    527   6 C                                 1.3854077
   521   6 C    528   1 H                                 1.0763442
   527   6 C    529   1 H                                 1.0763109
   519   7 N    530   6 C                                 1.4597983
   530   6 C    531   1 H                                 1.0953249
   530   6 C    532   1 H                                 1.0958670
   491   6 C    534   7 N                                 1.3838947
   533   6 C    534   7 N                                 1.4491270
   533   6 C    535   1 H                                 1.0947329
   533   6 C    536   1 H                                 1.0953190
   534   7 N    537   1 H                                 1.0222120
   519   7 N    538   1 H                                 1.0228876
   502   6 C    539   7 N                                 1.3858214
   540   6 C    541   6 C                                 1.3835854
   540   6 C    542   6 C                                 1.3846343
   542   6 C    543   6 C                                 1.3780284
   542   6 C    544   1 H                                 1.0758923
   543   6 C    545   6 C                                 1.3836367
   543   6 C    546   1 H                                 1.0769208
   541   6 C    547   6 C                                 1.3797239
   545   6 C    547   6 C                                 1.3851444
   541   6 C    548   1 H                                 1.0763801
   547   6 C    549   1 H                                 1.0762572
   539   7 N    550   6 C                                 1.4654840
   550   6 C    551   1 H                                 1.0953266
   550   6 C    552   1 H                                 1.0967382
   505   6 C    554   7 N                                 1.3846020
   553   6 C    554   7 N                                 1.4502912
   553   6 C    555   1 H                                 1.0952447
   553   6 C    556   1 H                                 1.0959787
   554   7 N    557   1 H                                 1.0238324
   539   7 N    558   1 H                                 1.0218978

 * 6 distinct bonds (by element types)

   Z      Z             #   av. dist./Å        max./Å        min./Å
   1 H    6 C         200     1.0814081     1.0973645     1.0740897
   6 C    6 C         212     1.3797830     1.5344086     1.2210868
   1 H    7 N          24     1.0243482     1.0282541     1.0218967
   6 C    7 N          64     1.3989523     1.4655193     1.3409353
   6 C    8 O          24     1.2192372     1.2213131     1.2144880
   7 N   46 Pd          8     2.0062098     2.1034943     1.9330239


optimized geometry written to: xtbopt.xyz


           -------------------------------------------------
          | TOTAL ENERGY             -111.445861241533 Eh   |
          | GRADIENT NORM               0.000931845857 Eh/α |
           -------------------------------------------------

------------------------------------------------------------------------
 * finished run on 2020/12/27 at 11:30:09.690     
------------------------------------------------------------------------
 total:
 * wall-time:     0 d,  0 h,  0 min, 55.495 sec
 *  cpu-time:     0 d,  0 h,  3 min, 40.431 sec
 * ratio c/w:     3.972 speedup
 SCF:
 * wall-time:     0 d,  0 h,  0 min,  0.081 sec
 *  cpu-time:     0 d,  0 h,  0 min,  0.325 sec
 * ratio c/w:     4.000 speedup
 ANC optimizer:
 * wall-time:     0 d,  0 h,  0 min, 54.728 sec
 *  cpu-time:     0 d,  0 h,  3 min, 37.738 sec
 * ratio c/w:     3.979 speedup

