558
 energy: -111.445861241533 gnorm: 0.000931845857 xtb: 6.3.1 (2faf18d)
Pd       -3.05787886939276    5.99407593912865    1.21457959477020
Pd       -2.94369584715486   -6.05140633793625    1.17531925510641
N        -0.99867183740250    6.15305599593461    0.81573124104081
C        -0.43795408648004    7.26842667048903    0.31757947323861
C         0.90052273319946    7.28812364046756    0.01739913230764
C         1.65736168743174    6.15431139693458    0.22406083014244
C         1.07184585346301    5.00091732737610    0.73678793594895
C        -0.27884271305575    5.04218344369041    1.03001062448879
C         1.81129155698623    3.82034567935317    0.93875980421580
C         2.41996846739593    2.77179235969498    1.08688774892753
H        -0.76926747139993    4.17819602472183    1.44003285573978
H        -1.05898642994598    8.13287796343193    0.15887414953250
H         1.35530965923947    8.18019685080021   -0.38008379443957
H         2.70768084813528    6.14859489754612   -0.01228421707247
N        -1.26087849769976   -5.23869130686945    1.66948683568638
C        -0.83838883823822   -6.42980768375405    2.15876966398941
C         0.45549267336502   -6.49361401083801    2.66430394008999
C         1.26221358486908   -5.37318536909940    2.64008929740094
C         0.79583951547731   -4.16968360953845    2.11940738906095
C        -0.49698965404468   -4.13559743724312    1.63282381187597
C         1.60911146227230   -3.02330782688458    2.05058016674047
C         2.28061826022325   -2.01284220246017    1.91036806848258
H        -0.89899585130047   -3.23693825707904    1.20229154385888
H        -1.45001141948634   -7.33027713829971    2.19916592251791
H         0.83030285242630   -7.41791946749914    3.07061276480743
H         2.27065222543105   -5.41862321455601    3.01452817148938
C         5.11346683942640    0.22952732048153    1.11669050907715
C         4.45703239079109    1.44512703020267    1.01882485499601
C         3.08722840920812    1.53967751059849    1.22140342983328
C         2.38080639062939    0.38376036114224    1.52834074141067
C         3.01882769835965   -0.84474282145669    1.64450870445663
C         4.39057498166401   -0.90714499715696    1.44580610111313
H         4.89117775852104   -1.85234564109925    1.57057093008510
H         5.02598259667550    2.32390960271117    0.77219087258722
H         1.31683005370275    0.43977892018460    1.67107592534075
C         6.56308857271023    0.16788439838298    0.83896847285823
O         7.27214678822872    1.14702790568768    1.01156084531105
N         7.08234866010387   -1.01209773875347    0.35507353345108
C         8.43558399376531   -1.05986771330289   -0.10661285408658
C         8.74728010639020   -2.43607312786016   -0.60246745764118
H         8.55173657055762   -0.33718069819684   -0.91977853204404
H         9.07793248397427   -0.74178600164376    0.71688692390041
O         7.87312676282344   -3.02079514284695   -1.20999330909020
N         9.99024472064109   -2.99788912378912   -0.39436405386135
H         6.48751536688188   -1.75261936216547   -0.03876344696466
C        11.03282831515921   -2.38702164660198    0.41258219516454
H        10.29261887930218   -3.75627332337323   -1.01735113772059
H        11.57156190052700   -1.65024158468038   -0.19096161869724
H        10.54728588990282   -1.84861551690951    1.22571951193177
C        11.98741490893103   -3.43061238768620    1.00742804027273
C        13.23633685491268   -2.83174615659333    1.62280458924222
C        11.28081424150109   -4.35994476963154    1.96519594078651
C        10.75471779134203   -3.88647689257547    3.15450497728753
C        10.18299702113668   -4.74851085080234    4.06442210565278
C        10.12002874047833   -6.09697012371508    3.79264165683541
C        10.61166108389718   -6.57585452513737    2.59827274617846
C        11.17812002488414   -5.71304222704052    1.68504583302630
H        11.50814345102637   -6.08110552716874    0.72770367265436
H        10.76407119801845   -2.82727700701268    3.34360333064526
H         9.77762645490159   -4.36420235411567    4.98506741167926
H         9.68735454588216   -6.77484354479483    4.51054339903512
H        10.55253880955979   -7.62853915097612    2.37706714194434
C        14.45602596219230   -3.46585086630912    1.44679746190912
C        15.61033409637017   -2.94875831779233    1.99409552049063
C        15.55838842780058   -1.79899126519191    2.74985513992790
C        14.34946095259608   -1.17392206791207    2.95925799639354
C        13.19960672708210   -1.68432496167455    2.39742346457802
H        12.26091634477682   -1.18484354331317    2.55962670343646
H        14.49718065142037   -4.36736331948939    0.86121757298608
H        16.55222872722096   -3.44908102036458    1.83834083042099
H        16.45833751239562   -1.39786559187219    3.18721729312241
H        14.30160392187941   -0.28627192765632    3.56806678631863
H        12.32588607717089   -4.05472668852785    0.17074550762630
C         6.37608409614249   -4.08916644619254    2.88787901895684
O         5.51976585664074   -3.65524410065611    2.13419593980013
C         7.18561649966460   -3.42856335709535    5.16860408090184
C         7.12154720884689   -3.18606391009591    3.80222351424252
C         7.95690289285525   -2.62613766579689    5.98282143797814
C         8.69266991375305   -1.59224624599001    5.44401557606925
C         7.83147396523971   -2.12258029357144    3.27757810664222
C         8.64020711872914   -1.33568721171625    4.08030527199031
H         6.63017257743929   -4.25362552353385    5.57967414272492
H         7.99876864834947   -2.81897175327515    7.04217036604560
H         7.74048830977779   -1.89933117626049    2.23089284185531
C         9.51859667485725   -0.31656801905865    3.44117655380926
O        10.40648743933301   -0.70353926095132    2.70084239467043
H         9.32566968039964   -0.98513091366686    6.06775695614149
C        13.84077280505518   -1.06172942191789   -1.61895426078195
O        13.01006331486906   -0.48039666028974   -2.29806536683179
C        15.30447913546122   -3.10568240214804   -1.63129746361524
C        14.05498168875806   -2.51887253830848   -1.78489192988753
C        15.43831680702125   -4.47755849311912   -1.68551112115875
C        14.32958636953734   -5.28208431388437   -1.85023244926869
C        12.96405944744174   -3.33222065084494   -2.03131662551375
C        13.07148455355619   -4.71356459058623   -2.00947294202847
H        16.16336592593327   -2.47662342921060   -1.47321079701746
H        16.41373464894972   -4.92421879799185   -1.58307093885873
H        12.00466644470750   -2.88077134281339   -2.21471565253221
C        11.81769697972284   -5.49947149879991   -2.07442804891894
O        10.81930516014971   -4.97102091830790   -2.53477603136362
H        14.43741603351497   -6.35186969658354   -1.87378016777425
N        11.75410540760964   -6.77611480187631   -1.54944777378757
C         9.43385193267216   -7.29246505939165   -0.84789740652436
C         9.04272240644825   -8.19603644804184    0.12654417278104
C         8.75656260710230   -6.08860269801883   -0.93356724449488
C         7.73024999726487   -5.78382173048768   -0.06667378384553
H         9.04969029795244   -5.37784772923950   -1.68616080023116
C         7.33724429364997   -6.68848416863273    0.90164560959995
H         7.24071581997516   -4.82595194085600   -0.12690710833704
C         8.00800030355740   -7.89747074031784    0.98988270979064
H         9.55740012938416   -9.13787586091393    0.20741947968579
H         7.71992259866083   -8.60319102416103    1.74976988331748
C        10.56815105253540   -7.59554424208537   -1.77970849655822
H        10.83033900052943   -8.65752176163257   -1.72338245742452
H        10.24386016120568   -7.41478425009744   -2.81072581343219
C         6.26172272100675   -6.32452335766114    1.87380550270623
N         6.73938774962753   -5.42448571442165    2.90439151037250
H         5.84515136196510   -7.22111052929223    2.34394089696735
H         5.43446522282753   -5.83178056658288    1.35174712756733
H         7.64843068999072   -5.68643508321162    3.29192161347750
H        12.60084380387933   -7.26987287166294   -1.25652749406117
N         9.25720113321502    1.01850116915154    3.70494149642832
C        10.86449723149609    1.84810372770504    1.97004817591183
C        12.13056733771426    1.95900638275000    2.51707221325623
C        10.74539384787238    1.45718608425377    0.64707607853924
C        11.86345689454791    1.17477407453203   -0.10728450831447
H         9.76023617415531    1.36974148147570    0.22377190675324
C        13.13081131460443    1.30248573773115    0.43283818243230
H        11.76911758370001    0.83785781091366   -1.12576659548409
C        13.25076296339795    1.69910163220208    1.75457242096414
H        12.23061599689496    2.24793111313563    3.54912283232356
H        14.23206999996831    1.80676733671406    2.18325951789389
C         9.64163351048052    2.10040627963836    2.79420552248942
H         9.78407406386658    3.01722777174869    3.37638069906874
H         8.79331553037667    2.28662467169565    2.12443068117620
C        14.33622191966571    1.01204255598461   -0.40508407927477
N        14.55722116974473   -0.40305090553465   -0.63388810228085
H        15.23325579765078    1.45528647499050    0.04035113518380
H        14.21765684830686    1.48280077106566   -1.38765936586992
H        14.91961890203900   -0.92421015824027    0.16952225413287
H         8.43404236225273    1.24484699310621    4.26677431575224
N        -2.62416362351360    5.30444765082172    2.96981805910197
C        -2.25751197542513    6.52818505259920    3.41530634995153
C        -1.83272629499803    6.64041755874767    4.73164206608308
C        -1.80388709090706    5.52275656409643    5.54071943439698
C        -2.19608533713918    4.27919695861208    5.05329439148550
C        -2.61093559536062    4.20329039875796    3.73687722085663
C        -2.18487962742266    3.12971035786378    5.86469944344754
C        -2.20745783896395    2.10498439863740    6.52876122532010
H        -2.93498425365170    3.27011876098350    3.31436490523619
H        -2.26143934354539    7.41908442990041    2.79326376317924
H        -1.52672889171396    7.59694196976790    5.12119383430730
H        -1.47915861129430    5.60209515228646    6.56395905645035
N        -3.70637194165672   -5.92937063750851    3.08806741927422
C        -4.64194820110022   -6.80135593296425    3.50506419035168
C        -5.19810246606292   -6.67250240602425    4.75263033570844
C        -4.79850681937029   -5.63426516450308    5.56675816571231
C        -3.83710870251204   -4.72896725635645    5.12951845985732
C        -3.29747783531449   -4.91855867598747    3.87067169314710
C        -3.44073729724674   -3.63709680711212    5.92218066819034
C        -3.11491089327576   -2.65249683343370    6.56675286807207
H        -2.53442850891678   -4.25766210252345    3.50366897886562
H        -4.95038314110033   -7.58397518399796    2.83388913777534
H        -5.94673739613130   -7.37008424036559    5.08895240942974
H        -5.22667512658987   -5.50961908604496    6.54677500707740
C        -2.08149991993934   -0.36629793677719    9.28966287117589
C        -1.99874725160614    0.82966003183409    8.59583274315165
C        -2.27778019198859    0.89174153041046    7.23776199457798
C        -2.64009923077569   -0.27646421094177    6.58056221756912
C        -2.74119694787471   -1.48506369356384    7.25644373855531
C        -2.46991918067557   -1.51499240268048    8.61649358537469
H        -2.60379598730021   -2.43948749325191    9.15148746279771
H        -1.71813664078365    1.72082838397196    9.12856548592497
H        -2.85549879198161   -0.24283252156842    5.52784933146789
C        -1.75981929011153   -0.38906615400744   10.73087636602771
O        -1.84918476508889    0.62640603188826   11.40350984803592
N        -1.34097415885419   -1.57643096764374   11.28820432772316
C        -0.86585343277226   -1.60299217538395   12.63680243387771
C        -0.47457944078096   -2.99971077295657   12.99982024587407
H         0.00170851889558   -0.94084794254110   12.71482646554155
H        -1.65370462917425   -1.19737768871250   13.27429565225339
O         0.09866110842794   -3.65457805213045   12.15269167595979
N        -0.73853766907248   -3.50366709856539   14.25707895621447
H        -1.01002344517584   -2.36676611027336   10.71998522113931
C        -1.51127703119243   -2.80027217826958   15.26671439600774
H        -0.16630207845096   -4.28582385714531   14.59671275013529
H        -0.86685554671008   -2.07761578991036   15.77651288508261
H        -2.28906771432461   -2.23670395858137   14.75209944218292
C        -2.17043507167196   -3.76384382310126   16.26243024206192
C        -2.74998170643205   -3.07669222823039   17.48266933504514
C        -3.18223408208142   -4.66204124154442   15.59206302336211
C        -4.34095218653196   -4.13952722767721   15.04454349437208
C        -5.30104802686475   -4.96780529805491   14.50592417316860
C        -5.11082066643323   -6.33162510427546   14.49804893776450
C        -3.94740821121256   -6.86116695040230   15.01157180014353
C        -2.98389067451102   -6.03260354765485   15.54491001427978
H        -2.05048620477088   -6.44390227555110   15.89205985809870
H        -4.46606338817470   -3.07132878824104   15.01138511771301
H        -6.19710286542053   -4.54563403887602   14.08346360053321
H        -5.86810261409683   -6.98208899400853   14.09124073598697
H        -3.78993778650002   -7.92677919355816   14.99525915703126
C        -2.62101897278509   -3.67254405570716   18.72728358469818
C        -3.13831172696410   -3.07617952272058   19.85691946529664
C        -3.81715754132876   -1.88257527131579   19.75530607654418
C        -3.98023207045948   -1.29313094136529   18.52159216091082
C        -3.44801473574159   -1.88371610112722   17.39629660759407
H        -3.57347127787387   -1.41191455690060   16.43785908304830
H        -2.09635823905432   -4.60832944622345   18.80736414869992
H        -3.01974425334976   -3.54844596626272   20.81850994678175
H        -4.23109974059390   -1.41889297068654   20.63606427844185
H        -4.52933564823221   -0.37018629507631   18.43510086923823
H        -1.37393331078434   -4.42289840011261   16.63045307788975
C        -4.04696025935890   -4.53537766628386   10.69940418716429
O        -3.24122898594094   -4.17787164905986    9.85525610396560
C        -6.29144658427681   -3.70711622250052   11.45380326220825
C        -4.91238338122136   -3.54990395301509   11.39616852451522
C        -7.06353191148455   -2.82340436021413   12.17812012875116
C        -6.47060848035880   -1.79111069238641   12.87337763747173
C        -4.33125405634274   -2.48899542142164   12.06449889604218
C        -5.09336501719937   -1.61985375818752   12.82668779978218
H        -6.74600754470160   -4.53036139344589   10.93052296216864
H        -8.13290648007223   -2.95056446569529   12.21540386581955
H        -3.27195244917689   -2.33311461435557   11.97812987105138
C        -4.40141832542722   -0.60313826179149   13.66627436478662
O        -3.68047375250129   -0.99541929338355   14.56767899989801
H        -7.06264466196921   -1.11952229684253   13.47066476117241
C         0.58462831578479   -1.47418534090950   18.02745346251293
O         1.29520962128814   -0.97116753446440   17.17227868970309
C         0.46854342133464   -3.45244992620096   19.57479888587258
C         0.66267240283478   -2.92825393041021   18.30329079758645
C         0.44211157031129   -4.81840583291780   19.76572097394989
C         0.56541611874654   -5.67677990155503   18.69255026057786
C         0.86660698448867   -3.79944098133373   17.24892834362635
C         0.76368938054701   -5.17147828119957   17.41320894168690
H         0.34323751980978   -2.78001924000394   20.40576550490167
H         0.30911684220025   -5.21728348078222   20.75801623385987
H         1.08112832117940   -3.39990993055920   16.27307357945922
C         0.78911019449897   -6.01100127628601   16.19334449296043
O         1.28248854338991   -5.55145602823097   15.17682587488116
H         0.52634835551913   -6.74070435204920   18.84476197059155
N         0.19285635443844   -7.25731252032171   16.17779596508251
C        -0.53257102470757   -7.82393418934892   13.87750749564561
C        -1.56026226832596   -8.68327730916888   13.52524414413910
C        -0.37554194472546   -6.65775944759818   13.14878256288256
C        -1.22385201067607   -6.34666838763173   12.10875170187446
H         0.41867737288990   -5.98112162105759   13.41174387573616
C        -2.24479697935673   -7.20841580152146   11.75398699150683
H        -1.10705311120240   -5.41649462970546   11.57758458679676
C        -2.40506206973854   -8.37917538611086   12.47705451102715
H        -1.69668489938810   -9.59531811657206   14.08029956148703
H        -3.20545108893296   -9.05056774820821   12.21806287071124
C         0.38005089844682   -8.13348434296449   15.02555994307176
H         0.26613309216241   -9.17995107243027   15.32828905531873
H         1.41983226416927   -8.02126332565745   14.69809820397353
C        -3.19267725580840   -6.83685477771028   10.65956035743256
N        -4.16867544777621   -5.85700543484750   11.09169661043878
H        -3.71404808033592   -7.72212622305805   10.28143993845331
H        -2.64156658897476   -6.41292075427319    9.81315078250263
H        -4.59050232899332   -6.06774603280687   11.99883467049124
H        -0.13110017876766   -7.69961781895004   17.04153210358600
N        -4.59651890380689    0.73321724245673   13.35553218545831
C        -2.81903737312128    1.53021440561855   14.93054900952094
C        -3.35720567463837    1.72469382838359   16.19028237192930
C        -1.52244192884031    1.05523890743804   14.82872742094225
C        -0.78574677583246    0.77195597220997   15.95828104788985
H        -1.10792257064074    0.90117905953966   13.84789169635714
C        -1.31588493444969    0.98281861536328   17.21879584343786
H         0.20981930234721    0.36919060833004   15.87893137305715
C        -2.61077435358566    1.46398833796536   17.32099146996777
H        -4.36983416716756    2.07916006000963   16.27715287190289
H        -3.03105963091110    1.63662020362534   18.29664041456817
C        -3.62862180121585    1.77896456068817   13.69749148306829
H        -4.15962195717753    2.73121873707401   13.80214493218740
H        -2.94984786686834    1.89384296725152   12.84370275840609
C        -0.49681118851662    0.68988031627325   18.43645835272422
N        -0.35622868374193   -0.72653328896162   18.71539764387723
H        -0.91338518250401    1.19597700011086   19.31390840547455
H         0.51283475649983    1.09407807800658   18.30123414837905
H        -1.18899672799210   -1.18143301129054   19.10013593395700
H        -5.14921854018316    0.95777643066981   12.52569875358856
N        -4.82942420070824    5.23259758027609    1.44963939999174
C        -5.32628195637013    6.40833642053550    1.89681944220528
C        -6.66551933781518    6.44814817749733    2.25858053551971
C        -7.43847245991374    5.30868408419217    2.15841913450810
C        -6.89418577607795    4.11348038673651    1.69576286503443
C        -5.55876221613745    4.11140068411456    1.33882416629297
C        -7.66547542567799    2.93925445757872    1.60067018941355
C        -8.30673304728684    1.90217242144007    1.52677224750300
H        -5.08794081914711    3.21823135626206    0.97175678125154
H        -4.73596329099698    7.31592759446176    1.98694756678917
H        -7.10093070167718    7.36532289787442    2.61852251304489
H        -8.47689512354403    5.33199638450183    2.44113326263091
N        -4.89297728040539   -6.21384593134767    0.48829102244297
C        -5.37473889447602   -7.27998185405806   -0.17334394013583
C        -6.67057442210200   -7.27952749120518   -0.62565131993655
C        -7.46618334325095   -6.17500172797347   -0.40345648813494
C        -6.96005857220069   -5.07024852453082    0.27333381677973
C        -5.65141934258425   -5.12965919626132    0.71593782369816
C        -7.73249325437472   -3.91688339151144    0.50412904208690
C        -8.35510484679314   -2.89131895451992    0.73219049325812
H        -5.22637335171795   -4.30186004347586    1.25489410590215
H        -4.72240325129265   -8.11898033208806   -0.34214038134292
H        -7.06144083761838   -8.13253403648410   -1.15458651952396
H        -8.48537195925748   -6.15318833774909   -0.75007352711120
C       -11.07093391990035   -0.56182939183449    1.66742324964240
C       -10.37479465382379    0.63427979740677    1.72364149109337
C        -9.01440576591992    0.68721130155264    1.45244778854526
C        -8.35817406458114   -0.49162380139534    1.12118898587369
C        -9.03702615754380   -1.70139868219202    1.04674706148899
C       -10.39818822466604   -1.72115758789653    1.31281201917866
H       -10.93194343880580   -2.65083599630056    1.21323617153074
H       -10.90579403587580    1.53200635947436    1.98610789330986
H        -7.30268038126639   -0.46752762248959    0.91909705409745
C       -12.51016414760230   -0.57923118013271    1.99941984619253
O       -13.19100880568666    0.42624554426959    1.86948080677306
N       -13.05330399449709   -1.75068430652309    2.47774411881912
C       -14.39549241556469   -1.76620952305245    2.97133621709476
C       -14.74031730808491   -3.14490120562764    3.43684790928809
H       -14.46879768464532   -1.06234706796961    3.80584447016549
H       -15.04657250906206   -1.40633682759811    2.17248706170900
O       -13.87793990856611   -3.76594767220136    4.02475473977247
N       -15.99873828614701   -3.66871987481406    3.22196119471223
H       -12.47418100520727   -2.51932108651307    2.83917682685197
C       -17.02561870679507   -3.01171617470442    2.43144067837334
H       -16.32160931792354   -4.42611832116377    3.83550894419589
H       -17.53137085116279   -2.26210669445363    3.04766697109370
H       -16.52696815050496   -2.48317744343665    1.61948306524295
C       -18.02340100553078   -4.01271456935576    1.83440226735934
C       -19.25536892900341   -3.36160434320163    1.23799801329931
C       -17.35990914399374   -4.95621120308901    0.85990939694612
C       -16.83076255152784   -4.48908942040065   -0.33055767637468
C       -16.29695760823359   -5.36085445974214   -1.25418265526736
C       -16.27572987832128   -6.71317060057190   -0.99526224205095
C       -16.77105469382667   -7.18691841160783    0.19963703552395
C       -17.29932539689384   -6.31456973702938    1.12657734396233
H       -17.63165904196859   -6.68056429871854    2.08392680333855
H       -16.80735602610565   -3.42840884728338   -0.50992039220764
H       -15.88808516731675   -4.98146977992173   -2.17532945120810
H       -15.87258700972781   -7.39810520764251   -1.72356951875826
H       -16.74483718295446   -8.24308508785232    0.41036758019371
C       -20.49488970642465   -3.95590399091108    1.41434833337981
C       -21.63488396270292   -3.39049350940162    0.88510792410976
C       -21.54911379952245   -2.23126624847255    0.14708136389882
C       -20.32090075258893   -1.64529390772107   -0.06305947420915
C       -19.18503687686503   -2.20412513292476    0.48084755495208
H       -18.23089878407041   -1.73511109576426    0.31792558358314
H       -20.56266469628839   -4.86500099145049    1.98556979925463
H       -22.59232211847785   -3.86032768941837    1.04105406202154
H       -22.43807983638040   -1.79223745853568   -0.27611292240892
H       -20.24703975475075   -0.75032055314196   -0.65838253436277
H       -18.37685615787180   -4.63349664527637    2.66737337629572
C       -12.46635959150754   -4.84278311051051   -0.08757726391253
O       -11.60385365723601   -4.44156048293293    0.67702270820999
C       -13.26249087650225   -4.13159772202447   -2.35683730316161
C       -13.18635969717637   -3.90634139808198   -0.98814591211728
C       -14.00727679804342   -3.29402736932669   -3.16014533975412
C       -14.70423058445384   -2.24052873408776   -2.60804541584154
C       -13.85722114562586   -2.82459381910953   -0.44956863960029
C       -14.63903679668151   -2.00087806446133   -1.24181888302360
H       -12.73702529249905   -4.97084790636418   -2.77843700831536
H       -14.05894882660865   -3.47394328027821   -4.22132255576394
H       -13.75675796991611   -2.61569829294717    0.59931619032772
C       -15.47613835741879   -0.95601154242617   -0.58978764597480
O       -16.36425446643942   -1.31664587794914    0.16336588657696
H       -15.31682077801185   -1.60450335268639   -3.22327671072764
C       -19.74850483656371   -1.60431946169222    4.50374438875056
O       -18.88205557451981   -1.06602410101682    5.17361332321981
C       -21.28878439902800   -3.59169037835693    4.50334356840181
C       -20.01720161086625   -3.05388571006773    4.65517926247523
C       -21.47380093605147   -4.95811944092839    4.54373791916374
C       -20.39520324247031   -5.80558958310285    4.69251662197861
C       -18.95637246364027   -3.91036882933188    4.88615353624234
C       -19.11572810776341   -5.28637815916635    4.84974038009737
H       -22.12442761062142   -2.92923905814962    4.35766909124762
H       -22.46592901203496   -5.36672817486631    4.44292130511444
H       -17.97962898563296   -3.49723034017239    5.06862122804649
C       -17.89142048977838   -6.11859984305707    4.89621780004129
O       -16.87059904085551   -5.63169105501748    5.35306753344950
H       -20.54303132271945   -6.87077445676123    4.70499966069366
N       -17.87834142881650   -7.39098236057956    4.35769688671947
C       -15.58421268961207   -7.98003740617696    3.62877686107413
C       -15.23516013262257   -8.88591367013920    2.64063568860634
C       -14.86392625733042   -6.80176453203936    3.72040520059272
C       -13.83601956898709   -6.52376470729505    2.84638107618618
H       -15.12415570926423   -6.08945634693594    4.48359454426775
C       -13.48463194824251   -7.43136950172985    1.86487093786521
H       -13.31249257130247   -5.58428793084576    2.91144895694877
C       -14.19886575116900   -8.61468678874950    1.77024371535273
H       -15.78358318830215   -9.80807493078398    2.55480755068823
H       -13.94330620852244   -9.32190256934009    1.00017663676066
C       -16.71966693140011   -8.25343801128502    4.56841493845132
H       -17.01908901947004   -9.30507479861945    4.50404472138554
H       -16.37981231732284   -8.09444576069052    5.59805429973221
C       -12.40494171185237   -7.09658627253038    0.88691370259129
N       -12.85816529075163   -6.16938905936487   -0.13027373234358
H       -12.02478832005479   -8.00282057598527    0.40451456345752
H       -11.55615444896944   -6.63908542374435    1.40652197172721
H       -13.77227656547192   -6.40340491742368   -0.52338066511448
H       -18.74480351668903   -7.85199215695682    4.06952785958780
N       -15.17806342227138    0.37036453618374   -0.85817246415782
C       -16.73205440543755    1.24753124960425    0.90102291171336
C       -18.00323160652192    1.40608256762449    0.37817786794064
C       -16.60220255913239    0.84066205163577    2.21808095809978
C       -17.71531692868055    0.58805604506477    2.99016356544217
H       -15.61229294114354    0.71549795110624    2.62065217257260
C       -18.98722122162329    0.76361944620659    2.47444251589991
H       -17.61400523762019    0.23665342503080    4.00306476891224
C       -19.11755376140199    1.17690026209118    1.15883696132952
H       -18.11214903583656    1.70748739471661   -0.64939337293732
H       -20.10228988626592    1.32140283907981    0.74925356658460
C       -15.51610063839805    1.46394643740245    0.05690487968179
H       -15.64119447606921    2.38397360163490   -0.52415226061087
H       -14.65230423761384    1.62567392960561    0.71313597264884
C       -20.18693353640190    0.50510807305486    3.33072205628740
N       -20.45717866019515   -0.90404628653001    3.54216866649948
H       -21.07467441997733    0.98869724137543    2.90926409089271
H       -20.03260469159200    0.95535409908961    4.31793279293023
H       -20.85511393831182   -1.39854475234676    2.73881501670097
H       -14.35774859752220    0.57150108436023   -1.43341204052739
N        -3.12774583553812    5.28940266018486   -0.59263203269911
C        -3.51128510658744    6.48978469158709   -1.08652986094509
C        -3.74746364908981    6.58397448697215   -2.45087456665016
C        -3.59612040887588    5.47078159356434   -3.25232764949667
C        -3.20683649729486    4.24881014571038   -2.71077834686410
C        -2.97114247679357    4.19212151505985   -1.34976126941604
C        -3.07278726046910    3.09812768856623   -3.51006553063453
C        -2.98180840822834    2.07189889064941   -4.16610530625140
H        -2.66845624788508    3.27405782203012   -0.88086642064462
H        -3.64236162601423    7.37862861710415   -0.47495760689601
H        -4.05095633929604    7.52271436879363   -2.88334919510017
H        -3.78249502507135    5.53536443879388   -4.31057435590069
N        -2.28529374450856   -6.12979170815058   -0.77351900910750
C        -1.73718437046815   -7.23896002216970   -1.30129600736681
C        -1.30836622071973   -7.24108058434226   -2.60480351755830
C        -1.44053430020395   -6.09721708597816   -3.36302677919255
C        -2.00163680793669   -4.95055044472410   -2.81096351857185
C        -2.42183512470740   -5.00564006515110   -1.49429182123602
C        -2.14771732840129   -3.76901577957804   -3.56005283140824
C        -2.30819771201645   -2.73345628631981   -4.18688255012789
H        -2.86763081092733   -4.14294130851844   -1.03254080125332
H        -1.64487369115582   -8.11356487160162   -0.68102664101845
H        -0.87100934908377   -8.12817489587488   -3.03144625778753
H        -1.11616900930316   -6.07680340435254   -4.38967348695708
C        -3.05412607764400   -0.38253096852919   -6.94234179304754
C        -3.11173155457476    0.81461565836061   -6.24799507010479
C        -2.90117245487996    0.85982890711244   -4.87672215344377